V -t * -v 1.0a5 -a 0
A -t * -n 1 -p 0 -o 0x7fffffff -c 30 -a 1
A -t * -h 1 -m 1073741823 -s 0
c -t * -i 1 -n Blue
c -t * -i 2 -n Yellow
n -t * -a 4 -s 4 -S UP -v circle -c black -i black
n -t * -a 0 -s 0 -S UP -v circle -c black -i black
n -t * -a 5 -s 5 -S UP -v circle -c black -i black
n -t * -a 1 -s 1 -S UP -v circle -c black -i black
n -t * -a 6 -s 6 -S UP -v circle -c black -i black
n -t * -a 2 -s 2 -S UP -v circle -c black -i black
n -t * -a 7 -s 7 -S UP -v circle -c black -i black
n -t * -a 3 -s 3 -S UP -v circle -c black -i black
l -t * -s 0 -d 3 -S UP -r 5000000 -D 0.01 -c black -o right-down
l -t * -s 1 -d 3 -S UP -r 5000000 -D 0.01 -c black -o right
l -t * -s 2 -d 3 -S UP -r 5000000 -D 0.01 -c black -o right-up
l -t * -s 3 -d 4 -S UP -r 150000 -D 0.029999999999999999 -c black -o right
l -t * -s 4 -d 5 -S UP -r 150000 -D 0.02 -c black -o right
l -t * -s 5 -d 6 -S UP -r 20000000 -D 0.01 -c black -o right-up
l -t * -s 5 -d 7 -S UP -r 5000000 -D 0.01 -c black -o right-down
+ -t 0.1 -s 0 -d 3 -p tcp -e 40 -c 1 -i 0 -a 1 -x {0.0 6.0 0 ------- null}
- -t 0.1 -s 0 -d 3 -p tcp -e 40 -c 1 -i 0 -a 1 -x {0.0 6.0 0 ------- null}
h -t 0.1 -s 0 -d 3 -p tcp -e 40 -c 1 -i 0 -a 1 -x {0.0 6.0 -1 ------- null}
r -t 0.110064 -s 0 -d 3 -p tcp -e 40 -c 1 -i 0 -a 1 -x {0.0 6.0 0 ------- null}
+ -t 0.110064 -s 3 -d 4 -p tcp -e 40 -c 1 -i 0 -a 1 -x {0.0 6.0 0 ------- null}
- -t 0.110064 -s 3 -d 4 -p tcp -e 40 -c 1 -i 0 -a 1 -x {0.0 6.0 0 ------- null}
h -t 0.110064 -s 3 -d 4 -p tcp -e 40 -c 1 -i 0 -a 1 -x {0.0 6.0 -1 ------- null}
r -t 0.142197333333333 -s 3 -d 4 -p tcp -e 40 -c 1 -i 0 -a 1 -x {0.0 6.0 0 ------- null}
+ -t 0.142197333333333 -s 4 -d 5 -p tcp -e 40 -c 1 -i 0 -a 1 -x {0.0 6.0 0 ------- null}
- -t 0.142197333333333 -s 4 -d 5 -p tcp -e 40 -c 1 -i 0 -a 1 -x {0.0 6.0 0 ------- null}
h -t 0.142197333333333 -s 4 -d 5 -p tcp -e 40 -c 1 -i 0 -a 1 -x {0.0 6.0 -1 ------- null}
r -t 0.164330666666667 -s 4 -d 5 -p tcp -e 40 -c 1 -i 0 -a 1 -x {0.0 6.0 0 ------- null}
+ -t 0.164330666666667 -s 5 -d 6 -p tcp -e 40 -c 1 -i 0 -a 1 -x {0.0 6.0 0 ------- null}
- -t 0.164330666666667 -s 5 -d 6 -p tcp -e 40 -c 1 -i 0 -a 1 -x {0.0 6.0 0 ------- null}
h -t 0.164330666666667 -s 5 -d 6 -p tcp -e 40 -c 1 -i 0 -a 1 -x {0.0 6.0 -1 ------- null}
r -t 0.174346666666667 -s 5 -d 6 -p tcp -e 40 -c 1 -i 0 -a 1 -x {0.0 6.0 0 ------- null}
+ -t 0.174346666666667 -s 6 -d 5 -p ack -e 40 -c 1 -i 1 -a 1 -x {6.0 0.0 0 ------- null}
- -t 0.174346666666667 -s 6 -d 5 -p ack -e 40 -c 1 -i 1 -a 1 -x {6.0 0.0 0 ------- null}
h -t 0.174346666666667 -s 6 -d 5 -p ack -e 40 -c 1 -i 1 -a 1 -x {6.0 0.0 -1 ------- null}
r -t 0.184362666666667 -s 6 -d 5 -p ack -e 40 -c 1 -i 1 -a 1 -x {6.0 0.0 0 ------- null}
+ -t 0.184362666666667 -s 5 -d 4 -p ack -e 40 -c 1 -i 1 -a 1 -x {6.0 0.0 0 ------- null}
- -t 0.184362666666667 -s 5 -d 4 -p ack -e 40 -c 1 -i 1 -a 1 -x {6.0 0.0 0 ------- null}
h -t 0.184362666666667 -s 5 -d 4 -p ack -e 40 -c 1 -i 1 -a 1 -x {6.0 0.0 -1 ------- null}
r -t 0.206496 -s 5 -d 4 -p ack -e 40 -c 1 -i 1 -a 1 -x {6.0 0.0 0 ------- null}
+ -t 0.206496 -s 4 -d 3 -p ack -e 40 -c 1 -i 1 -a 1 -x {6.0 0.0 0 ------- null}
- -t 0.206496 -s 4 -d 3 -p ack -e 40 -c 1 -i 1 -a 1 -x {6.0 0.0 0 ------- null}
h -t 0.206496 -s 4 -d 3 -p ack -e 40 -c 1 -i 1 -a 1 -x {6.0 0.0 -1 ------- null}
r -t 0.238629333333333 -s 4 -d 3 -p ack -e 40 -c 1 -i 1 -a 1 -x {6.0 0.0 0 ------- null}
+ -t 0.238629333333333 -s 3 -d 0 -p ack -e 40 -c 1 -i 1 -a 1 -x {6.0 0.0 0 ------- null}
- -t 0.238629333333333 -s 3 -d 0 -p ack -e 40 -c 1 -i 1 -a 1 -x {6.0 0.0 0 ------- null}
h -t 0.238629333333333 -s 3 -d 0 -p ack -e 40 -c 1 -i 1 -a 1 -x {6.0 0.0 -1 ------- null}
r -t 0.248693333333333 -s 3 -d 0 -p ack -e 40 -c 1 -i 1 -a 1 -x {6.0 0.0 0 ------- null}
+ -t 0.248693333333333 -s 0 -d 3 -p tcp -e 1040 -c 1 -i 2 -a 1 -x {0.0 6.0 1 ------- null}
- -t 0.248693333333333 -s 0 -d 3 -p tcp -e 1040 -c 1 -i 2 -a 1 -x {0.0 6.0 1 ------- null}
h -t 0.248693333333333 -s 0 -d 3 -p tcp -e 1040 -c 1 -i 2 -a 1 -x {0.0 6.0 -1 ------- null}
+ -t 0.248693333333333 -s 0 -d 3 -p tcp -e 1040 -c 1 -i 3 -a 1 -x {0.0 6.0 2 ------- null}
- -t 0.250357333333333 -s 0 -d 3 -p tcp -e 1040 -c 1 -i 3 -a 1 -x {0.0 6.0 2 ------- null}
h -t 0.250357333333333 -s 0 -d 3 -p tcp -e 1040 -c 1 -i 3 -a 1 -x {0.0 6.0 -1 ------- null}
r -t 0.260357333333333 -s 0 -d 3 -p tcp -e 1040 -c 1 -i 2 -a 1 -x {0.0 6.0 1 ------- null}
+ -t 0.260357333333333 -s 3 -d 4 -p tcp -e 1040 -c 1 -i 2 -a 1 -x {0.0 6.0 1 ------- null}
- -t 0.260357333333333 -s 3 -d 4 -p tcp -e 1040 -c 1 -i 2 -a 1 -x {0.0 6.0 1 ------- null}
h -t 0.260357333333333 -s 3 -d 4 -p tcp -e 1040 -c 1 -i 2 -a 1 -x {0.0 6.0 -1 ------- null}
r -t 0.262021333333333 -s 0 -d 3 -p tcp -e 1040 -c 1 -i 3 -a 1 -x {0.0 6.0 2 ------- null}
+ -t 0.262021333333333 -s 3 -d 4 -p tcp -e 1040 -c 1 -i 3 -a 1 -x {0.0 6.0 2 ------- null}
- -t 0.315824 -s 3 -d 4 -p tcp -e 1040 -c 1 -i 3 -a 1 -x {0.0 6.0 2 ------- null}
h -t 0.315824 -s 3 -d 4 -p tcp -e 1040 -c 1 -i 3 -a 1 -x {0.0 6.0 -1 ------- null}
r -t 0.345824 -s 3 -d 4 -p tcp -e 1040 -c 1 -i 2 -a 1 -x {0.0 6.0 1 ------- null}
+ -t 0.345824 -s 4 -d 5 -p tcp -e 1040 -c 1 -i 2 -a 1 -x {0.0 6.0 1 ------- null}
- -t 0.345824 -s 4 -d 5 -p tcp -e 1040 -c 1 -i 2 -a 1 -x {0.0 6.0 1 ------- null}
h -t 0.345824 -s 4 -d 5 -p tcp -e 1040 -c 1 -i 2 -a 1 -x {0.0 6.0 -1 ------- null}
r -t 0.401290666666667 -s 3 -d 4 -p tcp -e 1040 -c 1 -i 3 -a 1 -x {0.0 6.0 2 ------- null}
+ -t 0.401290666666667 -s 4 -d 5 -p tcp -e 1040 -c 1 -i 3 -a 1 -x {0.0 6.0 2 ------- null}
- -t 0.401290666666667 -s 4 -d 5 -p tcp -e 1040 -c 1 -i 3 -a 1 -x {0.0 6.0 2 ------- null}
h -t 0.401290666666667 -s 4 -d 5 -p tcp -e 1040 -c 1 -i 3 -a 1 -x {0.0 6.0 -1 ------- null}
r -t 0.421290666666667 -s 4 -d 5 -p tcp -e 1040 -c 1 -i 2 -a 1 -x {0.0 6.0 1 ------- null}
+ -t 0.421290666666667 -s 5 -d 6 -p tcp -e 1040 -c 1 -i 2 -a 1 -x {0.0 6.0 1 ------- null}
- -t 0.421290666666667 -s 5 -d 6 -p tcp -e 1040 -c 1 -i 2 -a 1 -x {0.0 6.0 1 ------- null}
h -t 0.421290666666667 -s 5 -d 6 -p tcp -e 1040 -c 1 -i 2 -a 1 -x {0.0 6.0 -1 ------- null}
r -t 0.431706666666667 -s 5 -d 6 -p tcp -e 1040 -c 1 -i 2 -a 1 -x {0.0 6.0 1 ------- null}
+ -t 0.431706666666667 -s 6 -d 5 -p ack -e 40 -c 1 -i 4 -a 1 -x {6.0 0.0 1 ------- null}
- -t 0.431706666666667 -s 6 -d 5 -p ack -e 40 -c 1 -i 4 -a 1 -x {6.0 0.0 1 ------- null}
h -t 0.431706666666667 -s 6 -d 5 -p ack -e 40 -c 1 -i 4 -a 1 -x {6.0 0.0 -1 ------- null}
r -t 0.441722666666667 -s 6 -d 5 -p ack -e 40 -c 1 -i 4 -a 1 -x {6.0 0.0 1 ------- null}
+ -t 0.441722666666667 -s 5 -d 4 -p ack -e 40 -c 1 -i 4 -a 1 -x {6.0 0.0 1 ------- null}
- -t 0.441722666666667 -s 5 -d 4 -p ack -e 40 -c 1 -i 4 -a 1 -x {6.0 0.0 1 ------- null}
h -t 0.441722666666667 -s 5 -d 4 -p ack -e 40 -c 1 -i 4 -a 1 -x {6.0 0.0 -1 ------- null}
r -t 0.463856 -s 5 -d 4 -p ack -e 40 -c 1 -i 4 -a 1 -x {6.0 0.0 1 ------- null}
+ -t 0.463856 -s 4 -d 3 -p ack -e 40 -c 1 -i 4 -a 1 -x {6.0 0.0 1 ------- null}
- -t 0.463856 -s 4 -d 3 -p ack -e 40 -c 1 -i 4 -a 1 -x {6.0 0.0 1 ------- null}
h -t 0.463856 -s 4 -d 3 -p ack -e 40 -c 1 -i 4 -a 1 -x {6.0 0.0 -1 ------- null}
r -t 0.476757333333333 -s 4 -d 5 -p tcp -e 1040 -c 1 -i 3 -a 1 -x {0.0 6.0 2 ------- null}
+ -t 0.476757333333333 -s 5 -d 6 -p tcp -e 1040 -c 1 -i 3 -a 1 -x {0.0 6.0 2 ------- null}
- -t 0.476757333333333 -s 5 -d 6 -p tcp -e 1040 -c 1 -i 3 -a 1 -x {0.0 6.0 2 ------- null}
h -t 0.476757333333333 -s 5 -d 6 -p tcp -e 1040 -c 1 -i 3 -a 1 -x {0.0 6.0 -1 ------- null}
r -t 0.487173333333333 -s 5 -d 6 -p tcp -e 1040 -c 1 -i 3 -a 1 -x {0.0 6.0 2 ------- null}
+ -t 0.487173333333333 -s 6 -d 5 -p ack -e 40 -c 1 -i 5 -a 1 -x {6.0 0.0 2 ------- null}
- -t 0.487173333333333 -s 6 -d 5 -p ack -e 40 -c 1 -i 5 -a 1 -x {6.0 0.0 2 ------- null}
h -t 0.487173333333333 -s 6 -d 5 -p ack -e 40 -c 1 -i 5 -a 1 -x {6.0 0.0 -1 ------- null}
r -t 0.495989333333333 -s 4 -d 3 -p ack -e 40 -c 1 -i 4 -a 1 -x {6.0 0.0 1 ------- null}
+ -t 0.495989333333333 -s 3 -d 0 -p ack -e 40 -c 1 -i 4 -a 1 -x {6.0 0.0 1 ------- null}
- -t 0.495989333333333 -s 3 -d 0 -p ack -e 40 -c 1 -i 4 -a 1 -x {6.0 0.0 1 ------- null}
h -t 0.495989333333333 -s 3 -d 0 -p ack -e 40 -c 1 -i 4 -a 1 -x {6.0 0.0 -1 ------- null}
r -t 0.497189333333333 -s 6 -d 5 -p ack -e 40 -c 1 -i 5 -a 1 -x {6.0 0.0 2 ------- null}
+ -t 0.497189333333333 -s 5 -d 4 -p ack -e 40 -c 1 -i 5 -a 1 -x {6.0 0.0 2 ------- null}
- -t 0.497189333333333 -s 5 -d 4 -p ack -e 40 -c 1 -i 5 -a 1 -x {6.0 0.0 2 ------- null}
h -t 0.497189333333333 -s 5 -d 4 -p ack -e 40 -c 1 -i 5 -a 1 -x {6.0 0.0 -1 ------- null}
r -t 0.506053333333333 -s 3 -d 0 -p ack -e 40 -c 1 -i 4 -a 1 -x {6.0 0.0 1 ------- null}
+ -t 0.506053333333333 -s 0 -d 3 -p tcp -e 1040 -c 1 -i 6 -a 1 -x {0.0 6.0 3 ------- null}
- -t 0.506053333333333 -s 0 -d 3 -p tcp -e 1040 -c 1 -i 6 -a 1 -x {0.0 6.0 3 ------- null}
h -t 0.506053333333333 -s 0 -d 3 -p tcp -e 1040 -c 1 -i 6 -a 1 -x {0.0 6.0 -1 ------- null}
+ -t 0.506053333333333 -s 0 -d 3 -p tcp -e 1040 -c 1 -i 7 -a 1 -x {0.0 6.0 4 ------- null}
- -t 0.507717333333333 -s 0 -d 3 -p tcp -e 1040 -c 1 -i 7 -a 1 -x {0.0 6.0 4 ------- null}
h -t 0.507717333333333 -s 0 -d 3 -p tcp -e 1040 -c 1 -i 7 -a 1 -x {0.0 6.0 -1 ------- null}
r -t 0.517717333333333 -s 0 -d 3 -p tcp -e 1040 -c 1 -i 6 -a 1 -x {0.0 6.0 3 ------- null}
+ -t 0.517717333333333 -s 3 -d 4 -p tcp -e 1040 -c 1 -i 6 -a 1 -x {0.0 6.0 3 ------- null}
- -t 0.517717333333333 -s 3 -d 4 -p tcp -e 1040 -c 1 -i 6 -a 1 -x {0.0 6.0 3 ------- null}
h -t 0.517717333333333 -s 3 -d 4 -p tcp -e 1040 -c 1 -i 6 -a 1 -x {0.0 6.0 -1 ------- null}
r -t 0.519322666666667 -s 5 -d 4 -p ack -e 40 -c 1 -i 5 -a 1 -x {6.0 0.0 2 ------- null}
+ -t 0.519322666666667 -s 4 -d 3 -p ack -e 40 -c 1 -i 5 -a 1 -x {6.0 0.0 2 ------- null}
- -t 0.519322666666667 -s 4 -d 3 -p ack -e 40 -c 1 -i 5 -a 1 -x {6.0 0.0 2 ------- null}
h -t 0.519322666666667 -s 4 -d 3 -p ack -e 40 -c 1 -i 5 -a 1 -x {6.0 0.0 -1 ------- null}
r -t 0.519381333333333 -s 0 -d 3 -p tcp -e 1040 -c 1 -i 7 -a 1 -x {0.0 6.0 4 ------- null}
+ -t 0.519381333333333 -s 3 -d 4 -p tcp -e 1040 -c 1 -i 7 -a 1 -x {0.0 6.0 4 ------- null}
r -t 0.551456 -s 4 -d 3 -p ack -e 40 -c 1 -i 5 -a 1 -x {6.0 0.0 2 ------- null}
+ -t 0.551456 -s 3 -d 0 -p ack -e 40 -c 1 -i 5 -a 1 -x {6.0 0.0 2 ------- null}
- -t 0.551456 -s 3 -d 0 -p ack -e 40 -c 1 -i 5 -a 1 -x {6.0 0.0 2 ------- null}
h -t 0.551456 -s 3 -d 0 -p ack -e 40 -c 1 -i 5 -a 1 -x {6.0 0.0 -1 ------- null}
r -t 0.56152 -s 3 -d 0 -p ack -e 40 -c 1 -i 5 -a 1 -x {6.0 0.0 2 ------- null}
+ -t 0.56152 -s 0 -d 3 -p tcp -e 1040 -c 1 -i 8 -a 1 -x {0.0 6.0 5 ------- null}
- -t 0.56152 -s 0 -d 3 -p tcp -e 1040 -c 1 -i 8 -a 1 -x {0.0 6.0 5 ------- null}
h -t 0.56152 -s 0 -d 3 -p tcp -e 1040 -c 1 -i 8 -a 1 -x {0.0 6.0 -1 ------- null}
+ -t 0.56152 -s 0 -d 3 -p tcp -e 1040 -c 1 -i 9 -a 1 -x {0.0 6.0 6 ------- null}
- -t 0.563184 -s 0 -d 3 -p tcp -e 1040 -c 1 -i 9 -a 1 -x {0.0 6.0 6 ------- null}
h -t 0.563184 -s 0 -d 3 -p tcp -e 1040 -c 1 -i 9 -a 1 -x {0.0 6.0 -1 ------- null}
- -t 0.573184 -s 3 -d 4 -p tcp -e 1040 -c 1 -i 7 -a 1 -x {0.0 6.0 4 ------- null}
h -t 0.573184 -s 3 -d 4 -p tcp -e 1040 -c 1 -i 7 -a 1 -x {0.0 6.0 -1 ------- null}
r -t 0.573184 -s 0 -d 3 -p tcp -e 1040 -c 1 -i 8 -a 1 -x {0.0 6.0 5 ------- null}
+ -t 0.573184 -s 3 -d 4 -p tcp -e 1040 -c 1 -i 8 -a 1 -x {0.0 6.0 5 ------- null}
r -t 0.574848 -s 0 -d 3 -p tcp -e 1040 -c 1 -i 9 -a 1 -x {0.0 6.0 6 ------- null}
+ -t 0.574848 -s 3 -d 4 -p tcp -e 1040 -c 1 -i 9 -a 1 -x {0.0 6.0 6 ------- null}
r -t 0.603184 -s 3 -d 4 -p tcp -e 1040 -c 1 -i 6 -a 1 -x {0.0 6.0 3 ------- null}
+ -t 0.603184 -s 4 -d 5 -p tcp -e 1040 -c 1 -i 6 -a 1 -x {0.0 6.0 3 ------- null}
- -t 0.603184 -s 4 -d 5 -p tcp -e 1040 -c 1 -i 6 -a 1 -x {0.0 6.0 3 ------- null}
h -t 0.603184 -s 4 -d 5 -p tcp -e 1040 -c 1 -i 6 -a 1 -x {0.0 6.0 -1 ------- null}
- -t 0.628650666666667 -s 3 -d 4 -p tcp -e 1040 -c 1 -i 8 -a 1 -x {0.0 6.0 5 ------- null}
h -t 0.628650666666667 -s 3 -d 4 -p tcp -e 1040 -c 1 -i 8 -a 1 -x {0.0 6.0 -1 ------- null}
r -t 0.658650666666667 -s 3 -d 4 -p tcp -e 1040 -c 1 -i 7 -a 1 -x {0.0 6.0 4 ------- null}
+ -t 0.658650666666667 -s 4 -d 5 -p tcp -e 1040 -c 1 -i 7 -a 1 -x {0.0 6.0 4 ------- null}
- -t 0.658650666666667 -s 4 -d 5 -p tcp -e 1040 -c 1 -i 7 -a 1 -x {0.0 6.0 4 ------- null}
h -t 0.658650666666667 -s 4 -d 5 -p tcp -e 1040 -c 1 -i 7 -a 1 -x {0.0 6.0 -1 ------- null}
r -t 0.678650666666667 -s 4 -d 5 -p tcp -e 1040 -c 1 -i 6 -a 1 -x {0.0 6.0 3 ------- null}
+ -t 0.678650666666667 -s 5 -d 6 -p tcp -e 1040 -c 1 -i 6 -a 1 -x {0.0 6.0 3 ------- null}
- -t 0.678650666666667 -s 5 -d 6 -p tcp -e 1040 -c 1 -i 6 -a 1 -x {0.0 6.0 3 ------- null}
h -t 0.678650666666667 -s 5 -d 6 -p tcp -e 1040 -c 1 -i 6 -a 1 -x {0.0 6.0 -1 ------- null}
- -t 0.684117333333333 -s 3 -d 4 -p tcp -e 1040 -c 1 -i 9 -a 1 -x {0.0 6.0 6 ------- null}
h -t 0.684117333333333 -s 3 -d 4 -p tcp -e 1040 -c 1 -i 9 -a 1 -x {0.0 6.0 -1 ------- null}
r -t 0.689066666666667 -s 5 -d 6 -p tcp -e 1040 -c 1 -i 6 -a 1 -x {0.0 6.0 3 ------- null}
+ -t 0.689066666666667 -s 6 -d 5 -p ack -e 40 -c 1 -i 10 -a 1 -x {6.0 0.0 3 ------- null}
- -t 0.689066666666667 -s 6 -d 5 -p ack -e 40 -c 1 -i 10 -a 1 -x {6.0 0.0 3 ------- null}
h -t 0.689066666666667 -s 6 -d 5 -p ack -e 40 -c 1 -i 10 -a 1 -x {6.0 0.0 -1 ------- null}
r -t 0.699082666666667 -s 6 -d 5 -p ack -e 40 -c 1 -i 10 -a 1 -x {6.0 0.0 3 ------- null}
+ -t 0.699082666666667 -s 5 -d 4 -p ack -e 40 -c 1 -i 10 -a 1 -x {6.0 0.0 3 ------- null}
- -t 0.699082666666667 -s 5 -d 4 -p ack -e 40 -c 1 -i 10 -a 1 -x {6.0 0.0 3 ------- null}
h -t 0.699082666666667 -s 5 -d 4 -p ack -e 40 -c 1 -i 10 -a 1 -x {6.0 0.0 -1 ------- null}
r -t 0.714117333333333 -s 3 -d 4 -p tcp -e 1040 -c 1 -i 8 -a 1 -x {0.0 6.0 5 ------- null}
+ -t 0.714117333333333 -s 4 -d 5 -p tcp -e 1040 -c 1 -i 8 -a 1 -x {0.0 6.0 5 ------- null}
- -t 0.714117333333333 -s 4 -d 5 -p tcp -e 1040 -c 1 -i 8 -a 1 -x {0.0 6.0 5 ------- null}
h -t 0.714117333333333 -s 4 -d 5 -p tcp -e 1040 -c 1 -i 8 -a 1 -x {0.0 6.0 -1 ------- null}
r -t 0.721216 -s 5 -d 4 -p ack -e 40 -c 1 -i 10 -a 1 -x {6.0 0.0 3 ------- null}
+ -t 0.721216 -s 4 -d 3 -p ack -e 40 -c 1 -i 10 -a 1 -x {6.0 0.0 3 ------- null}
- -t 0.721216 -s 4 -d 3 -p ack -e 40 -c 1 -i 10 -a 1 -x {6.0 0.0 3 ------- null}
h -t 0.721216 -s 4 -d 3 -p ack -e 40 -c 1 -i 10 -a 1 -x {6.0 0.0 -1 ------- null}
r -t 0.734117333333333 -s 4 -d 5 -p tcp -e 1040 -c 1 -i 7 -a 1 -x {0.0 6.0 4 ------- null}
+ -t 0.734117333333333 -s 5 -d 6 -p tcp -e 1040 -c 1 -i 7 -a 1 -x {0.0 6.0 4 ------- null}
- -t 0.734117333333333 -s 5 -d 6 -p tcp -e 1040 -c 1 -i 7 -a 1 -x {0.0 6.0 4 ------- null}
h -t 0.734117333333333 -s 5 -d 6 -p tcp -e 1040 -c 1 -i 7 -a 1 -x {0.0 6.0 -1 ------- null}
r -t 0.744533333333333 -s 5 -d 6 -p tcp -e 1040 -c 1 -i 7 -a 1 -x {0.0 6.0 4 ------- null}
+ -t 0.744533333333333 -s 6 -d 5 -p ack -e 40 -c 1 -i 11 -a 1 -x {6.0 0.0 4 ------- null}
- -t 0.744533333333333 -s 6 -d 5 -p ack -e 40 -c 1 -i 11 -a 1 -x {6.0 0.0 4 ------- null}
h -t 0.744533333333333 -s 6 -d 5 -p ack -e 40 -c 1 -i 11 -a 1 -x {6.0 0.0 -1 ------- null}
r -t 0.753349333333333 -s 4 -d 3 -p ack -e 40 -c 1 -i 10 -a 1 -x {6.0 0.0 3 ------- null}
+ -t 0.753349333333333 -s 3 -d 0 -p ack -e 40 -c 1 -i 10 -a 1 -x {6.0 0.0 3 ------- null}
- -t 0.753349333333333 -s 3 -d 0 -p ack -e 40 -c 1 -i 10 -a 1 -x {6.0 0.0 3 ------- null}
h -t 0.753349333333333 -s 3 -d 0 -p ack -e 40 -c 1 -i 10 -a 1 -x {6.0 0.0 -1 ------- null}
r -t 0.754549333333333 -s 6 -d 5 -p ack -e 40 -c 1 -i 11 -a 1 -x {6.0 0.0 4 ------- null}
+ -t 0.754549333333333 -s 5 -d 4 -p ack -e 40 -c 1 -i 11 -a 1 -x {6.0 0.0 4 ------- null}
- -t 0.754549333333333 -s 5 -d 4 -p ack -e 40 -c 1 -i 11 -a 1 -x {6.0 0.0 4 ------- null}
h -t 0.754549333333333 -s 5 -d 4 -p ack -e 40 -c 1 -i 11 -a 1 -x {6.0 0.0 -1 ------- null}
r -t 0.763413333333333 -s 3 -d 0 -p ack -e 40 -c 1 -i 10 -a 1 -x {6.0 0.0 3 ------- null}
+ -t 0.763413333333333 -s 0 -d 3 -p tcp -e 1040 -c 1 -i 12 -a 1 -x {0.0 6.0 7 ------- null}
- -t 0.763413333333333 -s 0 -d 3 -p tcp -e 1040 -c 1 -i 12 -a 1 -x {0.0 6.0 7 ------- null}
h -t 0.763413333333333 -s 0 -d 3 -p tcp -e 1040 -c 1 -i 12 -a 1 -x {0.0 6.0 -1 ------- null}
+ -t 0.763413333333333 -s 0 -d 3 -p tcp -e 1040 -c 1 -i 13 -a 1 -x {0.0 6.0 8 ------- null}
- -t 0.765077333333333 -s 0 -d 3 -p tcp -e 1040 -c 1 -i 13 -a 1 -x {0.0 6.0 8 ------- null}
h -t 0.765077333333333 -s 0 -d 3 -p tcp -e 1040 -c 1 -i 13 -a 1 -x {0.0 6.0 -1 ------- null}
r -t 0.769584 -s 3 -d 4 -p tcp -e 1040 -c 1 -i 9 -a 1 -x {0.0 6.0 6 ------- null}
+ -t 0.769584 -s 4 -d 5 -p tcp -e 1040 -c 1 -i 9 -a 1 -x {0.0 6.0 6 ------- null}
- -t 0.769584 -s 4 -d 5 -p tcp -e 1040 -c 1 -i 9 -a 1 -x {0.0 6.0 6 ------- null}
h -t 0.769584 -s 4 -d 5 -p tcp -e 1040 -c 1 -i 9 -a 1 -x {0.0 6.0 -1 ------- null}
r -t 0.775077333333333 -s 0 -d 3 -p tcp -e 1040 -c 1 -i 12 -a 1 -x {0.0 6.0 7 ------- null}
+ -t 0.775077333333333 -s 3 -d 4 -p tcp -e 1040 -c 1 -i 12 -a 1 -x {0.0 6.0 7 ------- null}
- -t 0.775077333333333 -s 3 -d 4 -p tcp -e 1040 -c 1 -i 12 -a 1 -x {0.0 6.0 7 ------- null}
h -t 0.775077333333333 -s 3 -d 4 -p tcp -e 1040 -c 1 -i 12 -a 1 -x {0.0 6.0 -1 ------- null}
r -t 0.776682666666667 -s 5 -d 4 -p ack -e 40 -c 1 -i 11 -a 1 -x {6.0 0.0 4 ------- null}
+ -t 0.776682666666667 -s 4 -d 3 -p ack -e 40 -c 1 -i 11 -a 1 -x {6.0 0.0 4 ------- null}
- -t 0.776682666666667 -s 4 -d 3 -p ack -e 40 -c 1 -i 11 -a 1 -x {6.0 0.0 4 ------- null}
h -t 0.776682666666667 -s 4 -d 3 -p ack -e 40 -c 1 -i 11 -a 1 -x {6.0 0.0 -1 ------- null}
r -t 0.776741333333333 -s 0 -d 3 -p tcp -e 1040 -c 1 -i 13 -a 1 -x {0.0 6.0 8 ------- null}
+ -t 0.776741333333333 -s 3 -d 4 -p tcp -e 1040 -c 1 -i 13 -a 1 -x {0.0 6.0 8 ------- null}
r -t 0.789584 -s 4 -d 5 -p tcp -e 1040 -c 1 -i 8 -a 1 -x {0.0 6.0 5 ------- null}
+ -t 0.789584 -s 5 -d 6 -p tcp -e 1040 -c 1 -i 8 -a 1 -x {0.0 6.0 5 ------- null}
- -t 0.789584 -s 5 -d 6 -p tcp -e 1040 -c 1 -i 8 -a 1 -x {0.0 6.0 5 ------- null}
h -t 0.789584 -s 5 -d 6 -p tcp -e 1040 -c 1 -i 8 -a 1 -x {0.0 6.0 -1 ------- null}
r -t 0.8 -s 5 -d 6 -p tcp -e 1040 -c 1 -i 8 -a 1 -x {0.0 6.0 5 ------- null}
+ -t 0.8 -s 6 -d 5 -p ack -e 40 -c 1 -i 14 -a 1 -x {6.0 0.0 5 ------- null}
- -t 0.8 -s 6 -d 5 -p ack -e 40 -c 1 -i 14 -a 1 -x {6.0 0.0 5 ------- null}
h -t 0.8 -s 6 -d 5 -p ack -e 40 -c 1 -i 14 -a 1 -x {6.0 0.0 -1 ------- null}
r -t 0.808816 -s 4 -d 3 -p ack -e 40 -c 1 -i 11 -a 1 -x {6.0 0.0 4 ------- null}
+ -t 0.808816 -s 3 -d 0 -p ack -e 40 -c 1 -i 11 -a 1 -x {6.0 0.0 4 ------- null}
- -t 0.808816 -s 3 -d 0 -p ack -e 40 -c 1 -i 11 -a 1 -x {6.0 0.0 4 ------- null}
h -t 0.808816 -s 3 -d 0 -p ack -e 40 -c 1 -i 11 -a 1 -x {6.0 0.0 -1 ------- null}
r -t 0.810016 -s 6 -d 5 -p ack -e 40 -c 1 -i 14 -a 1 -x {6.0 0.0 5 ------- null}
+ -t 0.810016 -s 5 -d 4 -p ack -e 40 -c 1 -i 14 -a 1 -x {6.0 0.0 5 ------- null}
- -t 0.810016 -s 5 -d 4 -p ack -e 40 -c 1 -i 14 -a 1 -x {6.0 0.0 5 ------- null}
h -t 0.810016 -s 5 -d 4 -p ack -e 40 -c 1 -i 14 -a 1 -x {6.0 0.0 -1 ------- null}
r -t 0.81888 -s 3 -d 0 -p ack -e 40 -c 1 -i 11 -a 1 -x {6.0 0.0 4 ------- null}
+ -t 0.81888 -s 0 -d 3 -p tcp -e 1040 -c 1 -i 15 -a 1 -x {0.0 6.0 9 ------- null}
- -t 0.81888 -s 0 -d 3 -p tcp -e 1040 -c 1 -i 15 -a 1 -x {0.0 6.0 9 ------- null}
h -t 0.81888 -s 0 -d 3 -p tcp -e 1040 -c 1 -i 15 -a 1 -x {0.0 6.0 -1 ------- null}
+ -t 0.81888 -s 0 -d 3 -p tcp -e 1040 -c 1 -i 16 -a 1 -x {0.0 6.0 10 ------- null}
- -t 0.820544 -s 0 -d 3 -p tcp -e 1040 -c 1 -i 16 -a 1 -x {0.0 6.0 10 ------- null}
h -t 0.820544 -s 0 -d 3 -p tcp -e 1040 -c 1 -i 16 -a 1 -x {0.0 6.0 -1 ------- null}
- -t 0.830544 -s 3 -d 4 -p tcp -e 1040 -c 1 -i 13 -a 1 -x {0.0 6.0 8 ------- null}
h -t 0.830544 -s 3 -d 4 -p tcp -e 1040 -c 1 -i 13 -a 1 -x {0.0 6.0 -1 ------- null}
r -t 0.830544 -s 0 -d 3 -p tcp -e 1040 -c 1 -i 15 -a 1 -x {0.0 6.0 9 ------- null}
+ -t 0.830544 -s 3 -d 4 -p tcp -e 1040 -c 1 -i 15 -a 1 -x {0.0 6.0 9 ------- null}
r -t 0.832149333333333 -s 5 -d 4 -p ack -e 40 -c 1 -i 14 -a 1 -x {6.0 0.0 5 ------- null}
+ -t 0.832149333333333 -s 4 -d 3 -p ack -e 40 -c 1 -i 14 -a 1 -x {6.0 0.0 5 ------- null}
- -t 0.832149333333333 -s 4 -d 3 -p ack -e 40 -c 1 -i 14 -a 1 -x {6.0 0.0 5 ------- null}
h -t 0.832149333333333 -s 4 -d 3 -p ack -e 40 -c 1 -i 14 -a 1 -x {6.0 0.0 -1 ------- null}
r -t 0.832208 -s 0 -d 3 -p tcp -e 1040 -c 1 -i 16 -a 1 -x {0.0 6.0 10 ------- null}
+ -t 0.832208 -s 3 -d 4 -p tcp -e 1040 -c 1 -i 16 -a 1 -x {0.0 6.0 10 ------- null}
r -t 0.845050666666667 -s 4 -d 5 -p tcp -e 1040 -c 1 -i 9 -a 1 -x {0.0 6.0 6 ------- null}
+ -t 0.845050666666667 -s 5 -d 6 -p tcp -e 1040 -c 1 -i 9 -a 1 -x {0.0 6.0 6 ------- null}
- -t 0.845050666666667 -s 5 -d 6 -p tcp -e 1040 -c 1 -i 9 -a 1 -x {0.0 6.0 6 ------- null}
h -t 0.845050666666667 -s 5 -d 6 -p tcp -e 1040 -c 1 -i 9 -a 1 -x {0.0 6.0 -1 ------- null}
r -t 0.855466666666667 -s 5 -d 6 -p tcp -e 1040 -c 1 -i 9 -a 1 -x {0.0 6.0 6 ------- null}
+ -t 0.855466666666667 -s 6 -d 5 -p ack -e 40 -c 1 -i 17 -a 1 -x {6.0 0.0 6 ------- null}
- -t 0.855466666666667 -s 6 -d 5 -p ack -e 40 -c 1 -i 17 -a 1 -x {6.0 0.0 6 ------- null}
h -t 0.855466666666667 -s 6 -d 5 -p ack -e 40 -c 1 -i 17 -a 1 -x {6.0 0.0 -1 ------- null}
r -t 0.860544 -s 3 -d 4 -p tcp -e 1040 -c 1 -i 12 -a 1 -x {0.0 6.0 7 ------- null}
+ -t 0.860544 -s 4 -d 5 -p tcp -e 1040 -c 1 -i 12 -a 1 -x {0.0 6.0 7 ------- null}
- -t 0.860544 -s 4 -d 5 -p tcp -e 1040 -c 1 -i 12 -a 1 -x {0.0 6.0 7 ------- null}
h -t 0.860544 -s 4 -d 5 -p tcp -e 1040 -c 1 -i 12 -a 1 -x {0.0 6.0 -1 ------- null}
r -t 0.864282666666667 -s 4 -d 3 -p ack -e 40 -c 1 -i 14 -a 1 -x {6.0 0.0 5 ------- null}
+ -t 0.864282666666667 -s 3 -d 0 -p ack -e 40 -c 1 -i 14 -a 1 -x {6.0 0.0 5 ------- null}
- -t 0.864282666666667 -s 3 -d 0 -p ack -e 40 -c 1 -i 14 -a 1 -x {6.0 0.0 5 ------- null}
h -t 0.864282666666667 -s 3 -d 0 -p ack -e 40 -c 1 -i 14 -a 1 -x {6.0 0.0 -1 ------- null}
r -t 0.865482666666667 -s 6 -d 5 -p ack -e 40 -c 1 -i 17 -a 1 -x {6.0 0.0 6 ------- null}
+ -t 0.865482666666667 -s 5 -d 4 -p ack -e 40 -c 1 -i 17 -a 1 -x {6.0 0.0 6 ------- null}
- -t 0.865482666666667 -s 5 -d 4 -p ack -e 40 -c 1 -i 17 -a 1 -x {6.0 0.0 6 ------- null}
h -t 0.865482666666667 -s 5 -d 4 -p ack -e 40 -c 1 -i 17 -a 1 -x {6.0 0.0 -1 ------- null}
r -t 0.874346666666667 -s 3 -d 0 -p ack -e 40 -c 1 -i 14 -a 1 -x {6.0 0.0 5 ------- null}
+ -t 0.874346666666667 -s 0 -d 3 -p tcp -e 1040 -c 1 -i 18 -a 1 -x {0.0 6.0 11 ------- null}
- -t 0.874346666666667 -s 0 -d 3 -p tcp -e 1040 -c 1 -i 18 -a 1 -x {0.0 6.0 11 ------- null}
h -t 0.874346666666667 -s 0 -d 3 -p tcp -e 1040 -c 1 -i 18 -a 1 -x {0.0 6.0 -1 ------- null}
+ -t 0.874346666666667 -s 0 -d 3 -p tcp -e 1040 -c 1 -i 19 -a 1 -x {0.0 6.0 12 ------- null}
- -t 0.876010666666667 -s 0 -d 3 -p tcp -e 1040 -c 1 -i 19 -a 1 -x {0.0 6.0 12 ------- null}
h -t 0.876010666666667 -s 0 -d 3 -p tcp -e 1040 -c 1 -i 19 -a 1 -x {0.0 6.0 -1 ------- null}
- -t 0.886010666666667 -s 3 -d 4 -p tcp -e 1040 -c 1 -i 15 -a 1 -x {0.0 6.0 9 ------- null}
h -t 0.886010666666667 -s 3 -d 4 -p tcp -e 1040 -c 1 -i 15 -a 1 -x {0.0 6.0 -1 ------- null}
r -t 0.886010666666667 -s 0 -d 3 -p tcp -e 1040 -c 1 -i 18 -a 1 -x {0.0 6.0 11 ------- null}
+ -t 0.886010666666667 -s 3 -d 4 -p tcp -e 1040 -c 1 -i 18 -a 1 -x {0.0 6.0 11 ------- null}
r -t 0.887616 -s 5 -d 4 -p ack -e 40 -c 1 -i 17 -a 1 -x {6.0 0.0 6 ------- null}
+ -t 0.887616 -s 4 -d 3 -p ack -e 40 -c 1 -i 17 -a 1 -x {6.0 0.0 6 ------- null}
- -t 0.887616 -s 4 -d 3 -p ack -e 40 -c 1 -i 17 -a 1 -x {6.0 0.0 6 ------- null}
h -t 0.887616 -s 4 -d 3 -p ack -e 40 -c 1 -i 17 -a 1 -x {6.0 0.0 -1 ------- null}
r -t 0.887674666666667 -s 0 -d 3 -p tcp -e 1040 -c 1 -i 19 -a 1 -x {0.0 6.0 12 ------- null}
+ -t 0.887674666666667 -s 3 -d 4 -p tcp -e 1040 -c 1 -i 19 -a 1 -x {0.0 6.0 12 ------- null}
r -t 0.916010666666667 -s 3 -d 4 -p tcp -e 1040 -c 1 -i 13 -a 1 -x {0.0 6.0 8 ------- null}
+ -t 0.916010666666667 -s 4 -d 5 -p tcp -e 1040 -c 1 -i 13 -a 1 -x {0.0 6.0 8 ------- null}
- -t 0.916010666666667 -s 4 -d 5 -p tcp -e 1040 -c 1 -i 13 -a 1 -x {0.0 6.0 8 ------- null}
h -t 0.916010666666667 -s 4 -d 5 -p tcp -e 1040 -c 1 -i 13 -a 1 -x {0.0 6.0 -1 ------- null}
r -t 0.919749333333333 -s 4 -d 3 -p ack -e 40 -c 1 -i 17 -a 1 -x {6.0 0.0 6 ------- null}
+ -t 0.919749333333333 -s 3 -d 0 -p ack -e 40 -c 1 -i 17 -a 1 -x {6.0 0.0 6 ------- null}
- -t 0.919749333333333 -s 3 -d 0 -p ack -e 40 -c 1 -i 17 -a 1 -x {6.0 0.0 6 ------- null}
h -t 0.919749333333333 -s 3 -d 0 -p ack -e 40 -c 1 -i 17 -a 1 -x {6.0 0.0 -1 ------- null}
r -t 0.929813333333333 -s 3 -d 0 -p ack -e 40 -c 1 -i 17 -a 1 -x {6.0 0.0 6 ------- null}
+ -t 0.929813333333333 -s 0 -d 3 -p tcp -e 1040 -c 1 -i 20 -a 1 -x {0.0 6.0 13 ------- null}
- -t 0.929813333333333 -s 0 -d 3 -p tcp -e 1040 -c 1 -i 20 -a 1 -x {0.0 6.0 13 ------- null}
h -t 0.929813333333333 -s 0 -d 3 -p tcp -e 1040 -c 1 -i 20 -a 1 -x {0.0 6.0 -1 ------- null}
+ -t 0.929813333333333 -s 0 -d 3 -p tcp -e 1040 -c 1 -i 21 -a 1 -x {0.0 6.0 14 ------- null}
- -t 0.931477333333333 -s 0 -d 3 -p tcp -e 1040 -c 1 -i 21 -a 1 -x {0.0 6.0 14 ------- null}
h -t 0.931477333333333 -s 0 -d 3 -p tcp -e 1040 -c 1 -i 21 -a 1 -x {0.0 6.0 -1 ------- null}
r -t 0.936010666666667 -s 4 -d 5 -p tcp -e 1040 -c 1 -i 12 -a 1 -x {0.0 6.0 7 ------- null}
+ -t 0.936010666666667 -s 5 -d 6 -p tcp -e 1040 -c 1 -i 12 -a 1 -x {0.0 6.0 7 ------- null}
- -t 0.936010666666667 -s 5 -d 6 -p tcp -e 1040 -c 1 -i 12 -a 1 -x {0.0 6.0 7 ------- null}
h -t 0.936010666666667 -s 5 -d 6 -p tcp -e 1040 -c 1 -i 12 -a 1 -x {0.0 6.0 -1 ------- null}
- -t 0.941477333333333 -s 3 -d 4 -p tcp -e 1040 -c 1 -i 16 -a 1 -x {0.0 6.0 10 ------- null}
h -t 0.941477333333333 -s 3 -d 4 -p tcp -e 1040 -c 1 -i 16 -a 1 -x {0.0 6.0 -1 ------- null}
r -t 0.941477333333333 -s 0 -d 3 -p tcp -e 1040 -c 1 -i 20 -a 1 -x {0.0 6.0 13 ------- null}
+ -t 0.941477333333333 -s 3 -d 4 -p tcp -e 1040 -c 1 -i 20 -a 1 -x {0.0 6.0 13 ------- null}
r -t 0.943141333333333 -s 0 -d 3 -p tcp -e 1040 -c 1 -i 21 -a 1 -x {0.0 6.0 14 ------- null}
+ -t 0.943141333333333 -s 3 -d 4 -p tcp -e 1040 -c 1 -i 21 -a 1 -x {0.0 6.0 14 ------- null}
r -t 0.946426666666667 -s 5 -d 6 -p tcp -e 1040 -c 1 -i 12 -a 1 -x {0.0 6.0 7 ------- null}
+ -t 0.946426666666667 -s 6 -d 5 -p ack -e 40 -c 1 -i 22 -a 1 -x {6.0 0.0 7 ------- null}
- -t 0.946426666666667 -s 6 -d 5 -p ack -e 40 -c 1 -i 22 -a 1 -x {6.0 0.0 7 ------- null}
h -t 0.946426666666667 -s 6 -d 5 -p ack -e 40 -c 1 -i 22 -a 1 -x {6.0 0.0 -1 ------- null}
r -t 0.956442666666667 -s 6 -d 5 -p ack -e 40 -c 1 -i 22 -a 1 -x {6.0 0.0 7 ------- null}
+ -t 0.956442666666667 -s 5 -d 4 -p ack -e 40 -c 1 -i 22 -a 1 -x {6.0 0.0 7 ------- null}
- -t 0.956442666666667 -s 5 -d 4 -p ack -e 40 -c 1 -i 22 -a 1 -x {6.0 0.0 7 ------- null}
h -t 0.956442666666667 -s 5 -d 4 -p ack -e 40 -c 1 -i 22 -a 1 -x {6.0 0.0 -1 ------- null}
r -t 0.971477333333333 -s 3 -d 4 -p tcp -e 1040 -c 1 -i 15 -a 1 -x {0.0 6.0 9 ------- null}
+ -t 0.971477333333333 -s 4 -d 5 -p tcp -e 1040 -c 1 -i 15 -a 1 -x {0.0 6.0 9 ------- null}
- -t 0.971477333333333 -s 4 -d 5 -p tcp -e 1040 -c 1 -i 15 -a 1 -x {0.0 6.0 9 ------- null}
h -t 0.971477333333333 -s 4 -d 5 -p tcp -e 1040 -c 1 -i 15 -a 1 -x {0.0 6.0 -1 ------- null}
r -t 0.978576 -s 5 -d 4 -p ack -e 40 -c 1 -i 22 -a 1 -x {6.0 0.0 7 ------- null}
+ -t 0.978576 -s 4 -d 3 -p ack -e 40 -c 1 -i 22 -a 1 -x {6.0 0.0 7 ------- null}
- -t 0.978576 -s 4 -d 3 -p ack -e 40 -c 1 -i 22 -a 1 -x {6.0 0.0 7 ------- null}
h -t 0.978576 -s 4 -d 3 -p ack -e 40 -c 1 -i 22 -a 1 -x {6.0 0.0 -1 ------- null}
r -t 0.991477333333333 -s 4 -d 5 -p tcp -e 1040 -c 1 -i 13 -a 1 -x {0.0 6.0 8 ------- null}
+ -t 0.991477333333333 -s 5 -d 6 -p tcp -e 1040 -c 1 -i 13 -a 1 -x {0.0 6.0 8 ------- null}
- -t 0.991477333333333 -s 5 -d 6 -p tcp -e 1040 -c 1 -i 13 -a 1 -x {0.0 6.0 8 ------- null}
h -t 0.991477333333333 -s 5 -d 6 -p tcp -e 1040 -c 1 -i 13 -a 1 -x {0.0 6.0 -1 ------- null}
- -t 0.996944 -s 3 -d 4 -p tcp -e 1040 -c 1 -i 18 -a 1 -x {0.0 6.0 11 ------- null}
h -t 0.996944 -s 3 -d 4 -p tcp -e 1040 -c 1 -i 18 -a 1 -x {0.0 6.0 -1 ------- null}
r -t 1.00189333333333 -s 5 -d 6 -p tcp -e 1040 -c 1 -i 13 -a 1 -x {0.0 6.0 8 ------- null}
+ -t 1.00189333333333 -s 6 -d 5 -p ack -e 40 -c 1 -i 23 -a 1 -x {6.0 0.0 8 ------- null}
- -t 1.00189333333333 -s 6 -d 5 -p ack -e 40 -c 1 -i 23 -a 1 -x {6.0 0.0 8 ------- null}
h -t 1.00189333333333 -s 6 -d 5 -p ack -e 40 -c 1 -i 23 -a 1 -x {6.0 0.0 -1 ------- null}
r -t 1.01070933333333 -s 4 -d 3 -p ack -e 40 -c 1 -i 22 -a 1 -x {6.0 0.0 7 ------- null}
+ -t 1.01070933333333 -s 3 -d 0 -p ack -e 40 -c 1 -i 22 -a 1 -x {6.0 0.0 7 ------- null}
- -t 1.01070933333333 -s 3 -d 0 -p ack -e 40 -c 1 -i 22 -a 1 -x {6.0 0.0 7 ------- null}
h -t 1.01070933333333 -s 3 -d 0 -p ack -e 40 -c 1 -i 22 -a 1 -x {6.0 0.0 -1 ------- null}
r -t 1.01190933333333 -s 6 -d 5 -p ack -e 40 -c 1 -i 23 -a 1 -x {6.0 0.0 8 ------- null}
+ -t 1.01190933333333 -s 5 -d 4 -p ack -e 40 -c 1 -i 23 -a 1 -x {6.0 0.0 8 ------- null}
- -t 1.01190933333333 -s 5 -d 4 -p ack -e 40 -c 1 -i 23 -a 1 -x {6.0 0.0 8 ------- null}
h -t 1.01190933333333 -s 5 -d 4 -p ack -e 40 -c 1 -i 23 -a 1 -x {6.0 0.0 -1 ------- null}
r -t 1.02077333333333 -s 3 -d 0 -p ack -e 40 -c 1 -i 22 -a 1 -x {6.0 0.0 7 ------- null}
+ -t 1.02077333333333 -s 0 -d 3 -p tcp -e 1040 -c 1 -i 24 -a 1 -x {0.0 6.0 15 ------- null}
- -t 1.02077333333333 -s 0 -d 3 -p tcp -e 1040 -c 1 -i 24 -a 1 -x {0.0 6.0 15 ------- null}
h -t 1.02077333333333 -s 0 -d 3 -p tcp -e 1040 -c 1 -i 24 -a 1 -x {0.0 6.0 -1 ------- null}
+ -t 1.02077333333333 -s 0 -d 3 -p tcp -e 1040 -c 1 -i 25 -a 1 -x {0.0 6.0 16 ------- null}
- -t 1.02243733333333 -s 0 -d 3 -p tcp -e 1040 -c 1 -i 25 -a 1 -x {0.0 6.0 16 ------- null}
h -t 1.02243733333333 -s 0 -d 3 -p tcp -e 1040 -c 1 -i 25 -a 1 -x {0.0 6.0 -1 ------- null}
r -t 1.026944 -s 3 -d 4 -p tcp -e 1040 -c 1 -i 16 -a 1 -x {0.0 6.0 10 ------- null}
+ -t 1.026944 -s 4 -d 5 -p tcp -e 1040 -c 1 -i 16 -a 1 -x {0.0 6.0 10 ------- null}
- -t 1.026944 -s 4 -d 5 -p tcp -e 1040 -c 1 -i 16 -a 1 -x {0.0 6.0 10 ------- null}
h -t 1.026944 -s 4 -d 5 -p tcp -e 1040 -c 1 -i 16 -a 1 -x {0.0 6.0 -1 ------- null}