+ 0.1 0 3 tcp 40 ------- 1 0.0 6.0 0 0
- 0.1 0 3 tcp 40 ------- 1 0.0 6.0 0 0
r 0.110064 0 3 tcp 40 ------- 1 0.0 6.0 0 0
+ 0.110064 3 4 tcp 40 ------- 1 0.0 6.0 0 0
- 0.110064 3 4 tcp 40 ------- 1 0.0 6.0 0 0
r 0.142197 3 4 tcp 40 ------- 1 0.0 6.0 0 0
+ 0.142197 4 5 tcp 40 ------- 1 0.0 6.0 0 0
- 0.142197 4 5 tcp 40 ------- 1 0.0 6.0 0 0
r 0.164331 4 5 tcp 40 ------- 1 0.0 6.0 0 0
+ 0.164331 5 6 tcp 40 ------- 1 0.0 6.0 0 0
- 0.164331 5 6 tcp 40 ------- 1 0.0 6.0 0 0
r 0.174347 5 6 tcp 40 ------- 1 0.0 6.0 0 0
+ 0.174347 6 5 ack 40 ------- 1 6.0 0.0 0 1
- 0.174347 6 5 ack 40 ------- 1 6.0 0.0 0 1
r 0.184363 6 5 ack 40 ------- 1 6.0 0.0 0 1
+ 0.184363 5 4 ack 40 ------- 1 6.0 0.0 0 1
- 0.184363 5 4 ack 40 ------- 1 6.0 0.0 0 1
r 0.206496 5 4 ack 40 ------- 1 6.0 0.0 0 1
+ 0.206496 4 3 ack 40 ------- 1 6.0 0.0 0 1
- 0.206496 4 3 ack 40 ------- 1 6.0 0.0 0 1
r 0.238629 4 3 ack 40 ------- 1 6.0 0.0 0 1
+ 0.238629 3 0 ack 40 ------- 1 6.0 0.0 0 1
- 0.238629 3 0 ack 40 ------- 1 6.0 0.0 0 1
r 0.248693 3 0 ack 40 ------- 1 6.0 0.0 0 1
+ 0.248693 0 3 tcp 1040 ------- 1 0.0 6.0 1 2
- 0.248693 0 3 tcp 1040 ------- 1 0.0 6.0 1 2
+ 0.248693 0 3 tcp 1040 ------- 1 0.0 6.0 2 3
- 0.250357 0 3 tcp 1040 ------- 1 0.0 6.0 2 3
r 0.260357 0 3 tcp 1040 ------- 1 0.0 6.0 1 2
+ 0.260357 3 4 tcp 1040 ------- 1 0.0 6.0 1 2
- 0.260357 3 4 tcp 1040 ------- 1 0.0 6.0 1 2
r 0.262021 0 3 tcp 1040 ------- 1 0.0 6.0 2 3
+ 0.262021 3 4 tcp 1040 ------- 1 0.0 6.0 2 3
- 0.315824 3 4 tcp 1040 ------- 1 0.0 6.0 2 3
r 0.345824 3 4 tcp 1040 ------- 1 0.0 6.0 1 2
+ 0.345824 4 5 tcp 1040 ------- 1 0.0 6.0 1 2
- 0.345824 4 5 tcp 1040 ------- 1 0.0 6.0 1 2
r 0.401291 3 4 tcp 1040 ------- 1 0.0 6.0 2 3
+ 0.401291 4 5 tcp 1040 ------- 1 0.0 6.0 2 3
- 0.401291 4 5 tcp 1040 ------- 1 0.0 6.0 2 3
r 0.421291 4 5 tcp 1040 ------- 1 0.0 6.0 1 2
+ 0.421291 5 6 tcp 1040 ------- 1 0.0 6.0 1 2
- 0.421291 5 6 tcp 1040 ------- 1 0.0 6.0 1 2
r 0.431707 5 6 tcp 1040 ------- 1 0.0 6.0 1 2
+ 0.431707 6 5 ack 40 ------- 1 6.0 0.0 1 4
- 0.431707 6 5 ack 40 ------- 1 6.0 0.0 1 4
r 0.441723 6 5 ack 40 ------- 1 6.0 0.0 1 4
+ 0.441723 5 4 ack 40 ------- 1 6.0 0.0 1 4
- 0.441723 5 4 ack 40 ------- 1 6.0 0.0 1 4
r 0.463856 5 4 ack 40 ------- 1 6.0 0.0 1 4
+ 0.463856 4 3 ack 40 ------- 1 6.0 0.0 1 4
- 0.463856 4 3 ack 40 ------- 1 6.0 0.0 1 4
r 0.476757 4 5 tcp 1040 ------- 1 0.0 6.0 2 3
+ 0.476757 5 6 tcp 1040 ------- 1 0.0 6.0 2 3
- 0.476757 5 6 tcp 1040 ------- 1 0.0 6.0 2 3
r 0.487173 5 6 tcp 1040 ------- 1 0.0 6.0 2 3
+ 0.487173 6 5 ack 40 ------- 1 6.0 0.0 2 5
- 0.487173 6 5 ack 40 ------- 1 6.0 0.0 2 5
r 0.495989 4 3 ack 40 ------- 1 6.0 0.0 1 4
+ 0.495989 3 0 ack 40 ------- 1 6.0 0.0 1 4
- 0.495989 3 0 ack 40 ------- 1 6.0 0.0 1 4
r 0.497189 6 5 ack 40 ------- 1 6.0 0.0 2 5
+ 0.497189 5 4 ack 40 ------- 1 6.0 0.0 2 5
- 0.497189 5 4 ack 40 ------- 1 6.0 0.0 2 5
r 0.506053 3 0 ack 40 ------- 1 6.0 0.0 1 4
+ 0.506053 0 3 tcp 1040 ------- 1 0.0 6.0 3 6
- 0.506053 0 3 tcp 1040 ------- 1 0.0 6.0 3 6
+ 0.506053 0 3 tcp 1040 ------- 1 0.0 6.0 4 7
- 0.507717 0 3 tcp 1040 ------- 1 0.0 6.0 4 7
r 0.517717 0 3 tcp 1040 ------- 1 0.0 6.0 3 6
+ 0.517717 3 4 tcp 1040 ------- 1 0.0 6.0 3 6
- 0.517717 3 4 tcp 1040 ------- 1 0.0 6.0 3 6
r 0.519323 5 4 ack 40 ------- 1 6.0 0.0 2 5
+ 0.519323 4 3 ack 40 ------- 1 6.0 0.0 2 5
- 0.519323 4 3 ack 40 ------- 1 6.0 0.0 2 5
r 0.519381 0 3 tcp 1040 ------- 1 0.0 6.0 4 7
+ 0.519381 3 4 tcp 1040 ------- 1 0.0 6.0 4 7
r 0.551456 4 3 ack 40 ------- 1 6.0 0.0 2 5
+ 0.551456 3 0 ack 40 ------- 1 6.0 0.0 2 5
- 0.551456 3 0 ack 40 ------- 1 6.0 0.0 2 5
r 0.56152 3 0 ack 40 ------- 1 6.0 0.0 2 5
+ 0.56152 0 3 tcp 1040 ------- 1 0.0 6.0 5 8
- 0.56152 0 3 tcp 1040 ------- 1 0.0 6.0 5 8
+ 0.56152 0 3 tcp 1040 ------- 1 0.0 6.0 6 9
- 0.563184 0 3 tcp 1040 ------- 1 0.0 6.0 6 9
- 0.573184 3 4 tcp 1040 ------- 1 0.0 6.0 4 7
r 0.573184 0 3 tcp 1040 ------- 1 0.0 6.0 5 8
+ 0.573184 3 4 tcp 1040 ------- 1 0.0 6.0 5 8
r 0.574848 0 3 tcp 1040 ------- 1 0.0 6.0 6 9
+ 0.574848 3 4 tcp 1040 ------- 1 0.0 6.0 6 9
r 0.603184 3 4 tcp 1040 ------- 1 0.0 6.0 3 6
+ 0.603184 4 5 tcp 1040 ------- 1 0.0 6.0 3 6
- 0.603184 4 5 tcp 1040 ------- 1 0.0 6.0 3 6
- 0.628651 3 4 tcp 1040 ------- 1 0.0 6.0 5 8
r 0.658651 3 4 tcp 1040 ------- 1 0.0 6.0 4 7
+ 0.658651 4 5 tcp 1040 ------- 1 0.0 6.0 4 7
- 0.658651 4 5 tcp 1040 ------- 1 0.0 6.0 4 7
r 0.678651 4 5 tcp 1040 ------- 1 0.0 6.0 3 6
+ 0.678651 5 6 tcp 1040 ------- 1 0.0 6.0 3 6
- 0.678651 5 6 tcp 1040 ------- 1 0.0 6.0 3 6
- 0.684117 3 4 tcp 1040 ------- 1 0.0 6.0 6 9
r 0.689067 5 6 tcp 1040 ------- 1 0.0 6.0 3 6
+ 0.689067 6 5 ack 40 ------- 1 6.0 0.0 3 10
- 0.689067 6 5 ack 40 ------- 1 6.0 0.0 3 10
r 0.699083 6 5 ack 40 ------- 1 6.0 0.0 3 10
+ 0.699083 5 4 ack 40 ------- 1 6.0 0.0 3 10
- 0.699083 5 4 ack 40 ------- 1 6.0 0.0 3 10
r 0.714117 3 4 tcp 1040 ------- 1 0.0 6.0 5 8
+ 0.714117 4 5 tcp 1040 ------- 1 0.0 6.0 5 8
- 0.714117 4 5 tcp 1040 ------- 1 0.0 6.0 5 8
r 0.721216 5 4 ack 40 ------- 1 6.0 0.0 3 10
+ 0.721216 4 3 ack 40 ------- 1 6.0 0.0 3 10
- 0.721216 4 3 ack 40 ------- 1 6.0 0.0 3 10
r 0.734117 4 5 tcp 1040 ------- 1 0.0 6.0 4 7
+ 0.734117 5 6 tcp 1040 ------- 1 0.0 6.0 4 7
- 0.734117 5 6 tcp 1040 ------- 1 0.0 6.0 4 7
r 0.744533 5 6 tcp 1040 ------- 1 0.0 6.0 4 7
+ 0.744533 6 5 ack 40 ------- 1 6.0 0.0 4 11
- 0.744533 6 5 ack 40 ------- 1 6.0 0.0 4 11
r 0.753349 4 3 ack 40 ------- 1 6.0 0.0 3 10
+ 0.753349 3 0 ack 40 ------- 1 6.0 0.0 3 10
- 0.753349 3 0 ack 40 ------- 1 6.0 0.0 3 10
r 0.754549 6 5 ack 40 ------- 1 6.0 0.0 4 11
+ 0.754549 5 4 ack 40 ------- 1 6.0 0.0 4 11
- 0.754549 5 4 ack 40 ------- 1 6.0 0.0 4 11
r 0.763413 3 0 ack 40 ------- 1 6.0 0.0 3 10
+ 0.763413 0 3 tcp 1040 ------- 1 0.0 6.0 7 12
- 0.763413 0 3 tcp 1040 ------- 1 0.0 6.0 7 12
+ 0.763413 0 3 tcp 1040 ------- 1 0.0 6.0 8 13
- 0.765077 0 3 tcp 1040 ------- 1 0.0 6.0 8 13
r 0.769584 3 4 tcp 1040 ------- 1 0.0 6.0 6 9
+ 0.769584 4 5 tcp 1040 ------- 1 0.0 6.0 6 9
- 0.769584 4 5 tcp 1040 ------- 1 0.0 6.0 6 9
r 0.775077 0 3 tcp 1040 ------- 1 0.0 6.0 7 12
+ 0.775077 3 4 tcp 1040 ------- 1 0.0 6.0 7 12
- 0.775077 3 4 tcp 1040 ------- 1 0.0 6.0 7 12
r 0.776683 5 4 ack 40 ------- 1 6.0 0.0 4 11
+ 0.776683 4 3 ack 40 ------- 1 6.0 0.0 4 11
- 0.776683 4 3 ack 40 ------- 1 6.0 0.0 4 11
r 0.776741 0 3 tcp 1040 ------- 1 0.0 6.0 8 13
+ 0.776741 3 4 tcp 1040 ------- 1 0.0 6.0 8 13
r 0.789584 4 5 tcp 1040 ------- 1 0.0 6.0 5 8
+ 0.789584 5 6 tcp 1040 ------- 1 0.0 6.0 5 8
- 0.789584 5 6 tcp 1040 ------- 1 0.0 6.0 5 8
r 0.8 5 6 tcp 1040 ------- 1 0.0 6.0 5 8
+ 0.8 6 5 ack 40 ------- 1 6.0 0.0 5 14
- 0.8 6 5 ack 40 ------- 1 6.0 0.0 5 14
r 0.808816 4 3 ack 40 ------- 1 6.0 0.0 4 11
+ 0.808816 3 0 ack 40 ------- 1 6.0 0.0 4 11
- 0.808816 3 0 ack 40 ------- 1 6.0 0.0 4 11
r 0.810016 6 5 ack 40 ------- 1 6.0 0.0 5 14
+ 0.810016 5 4 ack 40 ------- 1 6.0 0.0 5 14
- 0.810016 5 4 ack 40 ------- 1 6.0 0.0 5 14
r 0.81888 3 0 ack 40 ------- 1 6.0 0.0 4 11
+ 0.81888 0 3 tcp 1040 ------- 1 0.0 6.0 9 15
- 0.81888 0 3 tcp 1040 ------- 1 0.0 6.0 9 15
+ 0.81888 0 3 tcp 1040 ------- 1 0.0 6.0 10 16
- 0.820544 0 3 tcp 1040 ------- 1 0.0 6.0 10 16
- 0.830544 3 4 tcp 1040 ------- 1 0.0 6.0 8 13
r 0.830544 0 3 tcp 1040 ------- 1 0.0 6.0 9 15
+ 0.830544 3 4 tcp 1040 ------- 1 0.0 6.0 9 15
r 0.832149 5 4 ack 40 ------- 1 6.0 0.0 5 14
+ 0.832149 4 3 ack 40 ------- 1 6.0 0.0 5 14
- 0.832149 4 3 ack 40 ------- 1 6.0 0.0 5 14
r 0.832208 0 3 tcp 1040 ------- 1 0.0 6.0 10 16
+ 0.832208 3 4 tcp 1040 ------- 1 0.0 6.0 10 16
r 0.845051 4 5 tcp 1040 ------- 1 0.0 6.0 6 9
+ 0.845051 5 6 tcp 1040 ------- 1 0.0 6.0 6 9
- 0.845051 5 6 tcp 1040 ------- 1 0.0 6.0 6 9
r 0.855467 5 6 tcp 1040 ------- 1 0.0 6.0 6 9
+ 0.855467 6 5 ack 40 ------- 1 6.0 0.0 6 17
- 0.855467 6 5 ack 40 ------- 1 6.0 0.0 6 17
r 0.860544 3 4 tcp 1040 ------- 1 0.0 6.0 7 12
+ 0.860544 4 5 tcp 1040 ------- 1 0.0 6.0 7 12
- 0.860544 4 5 tcp 1040 ------- 1 0.0 6.0 7 12
r 0.864283 4 3 ack 40 ------- 1 6.0 0.0 5 14
+ 0.864283 3 0 ack 40 ------- 1 6.0 0.0 5 14
- 0.864283 3 0 ack 40 ------- 1 6.0 0.0 5 14
r 0.865483 6 5 ack 40 ------- 1 6.0 0.0 6 17
+ 0.865483 5 4 ack 40 ------- 1 6.0 0.0 6 17
- 0.865483 5 4 ack 40 ------- 1 6.0 0.0 6 17
r 0.874347 3 0 ack 40 ------- 1 6.0 0.0 5 14
+ 0.874347 0 3 tcp 1040 ------- 1 0.0 6.0 11 18
- 0.874347 0 3 tcp 1040 ------- 1 0.0 6.0 11 18
+ 0.874347 0 3 tcp 1040 ------- 1 0.0 6.0 12 19
- 0.876011 0 3 tcp 1040 ------- 1 0.0 6.0 12 19
- 0.886011 3 4 tcp 1040 ------- 1 0.0 6.0 9 15
r 0.886011 0 3 tcp 1040 ------- 1 0.0 6.0 11 18
+ 0.886011 3 4 tcp 1040 ------- 1 0.0 6.0 11 18
r 0.887616 5 4 ack 40 ------- 1 6.0 0.0 6 17
+ 0.887616 4 3 ack 40 ------- 1 6.0 0.0 6 17
- 0.887616 4 3 ack 40 ------- 1 6.0 0.0 6 17
r 0.887675 0 3 tcp 1040 ------- 1 0.0 6.0 12 19
+ 0.887675 3 4 tcp 1040 ------- 1 0.0 6.0 12 19
r 0.916011 3 4 tcp 1040 ------- 1 0.0 6.0 8 13
+ 0.916011 4 5 tcp 1040 ------- 1 0.0 6.0 8 13
- 0.916011 4 5 tcp 1040 ------- 1 0.0 6.0 8 13
r 0.919749 4 3 ack 40 ------- 1 6.0 0.0 6 17
+ 0.919749 3 0 ack 40 ------- 1 6.0 0.0 6 17
- 0.919749 3 0 ack 40 ------- 1 6.0 0.0 6 17
r 0.929813 3 0 ack 40 ------- 1 6.0 0.0 6 17
+ 0.929813 0 3 tcp 1040 ------- 1 0.0 6.0 13 20
- 0.929813 0 3 tcp 1040 ------- 1 0.0 6.0 13 20
+ 0.929813 0 3 tcp 1040 ------- 1 0.0 6.0 14 21
- 0.931477 0 3 tcp 1040 ------- 1 0.0 6.0 14 21
r 0.936011 4 5 tcp 1040 ------- 1 0.0 6.0 7 12
+ 0.936011 5 6 tcp 1040 ------- 1 0.0 6.0 7 12
- 0.936011 5 6 tcp 1040 ------- 1 0.0 6.0 7 12
- 0.941477 3 4 tcp 1040 ------- 1 0.0 6.0 10 16
r 0.941477 0 3 tcp 1040 ------- 1 0.0 6.0 13 20
+ 0.941477 3 4 tcp 1040 ------- 1 0.0 6.0 13 20
r 0.943141 0 3 tcp 1040 ------- 1 0.0 6.0 14 21
+ 0.943141 3 4 tcp 1040 ------- 1 0.0 6.0 14 21
r 0.946427 5 6 tcp 1040 ------- 1 0.0 6.0 7 12
+ 0.946427 6 5 ack 40 ------- 1 6.0 0.0 7 22
- 0.946427 6 5 ack 40 ------- 1 6.0 0.0 7 22
r 0.956443 6 5 ack 40 ------- 1 6.0 0.0 7 22
+ 0.956443 5 4 ack 40 ------- 1 6.0 0.0 7 22
- 0.956443 5 4 ack 40 ------- 1 6.0 0.0 7 22
r 0.971477 3 4 tcp 1040 ------- 1 0.0 6.0 9 15
+ 0.971477 4 5 tcp 1040 ------- 1 0.0 6.0 9 15
- 0.971477 4 5 tcp 1040 ------- 1 0.0 6.0 9 15
r 0.978576 5 4 ack 40 ------- 1 6.0 0.0 7 22
+ 0.978576 4 3 ack 40 ------- 1 6.0 0.0 7 22
- 0.978576 4 3 ack 40 ------- 1 6.0 0.0 7 22
r 0.991477 4 5 tcp 1040 ------- 1 0.0 6.0 8 13
+ 0.991477 5 6 tcp 1040 ------- 1 0.0 6.0 8 13
- 0.991477 5 6 tcp 1040 ------- 1 0.0 6.0 8 13
- 0.996944 3 4 tcp 1040 ------- 1 0.0 6.0 11 18
r 1.001893 5 6 tcp 1040 ------- 1 0.0 6.0 8 13
+ 1.001893 6 5 ack 40 ------- 1 6.0 0.0 8 23
- 1.001893 6 5 ack 40 ------- 1 6.0 0.0 8 23
r 1.010709 4 3 ack 40 ------- 1 6.0 0.0 7 22
+ 1.010709 3 0 ack 40 ------- 1 6.0 0.0 7 22
- 1.010709 3 0 ack 40 ------- 1 6.0 0.0 7 22
r 1.011909 6 5 ack 40 ------- 1 6.0 0.0 8 23
+ 1.011909 5 4 ack 40 ------- 1 6.0 0.0 8 23
- 1.011909 5 4 ack 40 ------- 1 6.0 0.0 8 23
r 1.020773 3 0 ack 40 ------- 1 6.0 0.0 7 22
+ 1.020773 0 3 tcp 1040 ------- 1 0.0 6.0 15 24
- 1.020773 0 3 tcp 1040 ------- 1 0.0 6.0 15 24
+ 1.020773 0 3 tcp 1040 ------- 1 0.0 6.0 16 25
- 1.022437 0 3 tcp 1040 ------- 1 0.0 6.0 16 25
r 1.026944 3 4 tcp 1040 ------- 1 0.0 6.0 10 16
+ 1.026944 4 5 tcp 1040 ------- 1 0.0 6.0 10 16
- 1.026944 4 5 tcp 1040 ------- 1 0.0 6.0 10 16
r 1.032437 0 3 tcp 1040 ------- 1 0.0 6.0 15 24
+ 1.032437 3 4 tcp 1040 ------- 1 0.0 6.0 15 24
r 1.034043 5 4 ack 40 ------- 1 6.0 0.0 8 23
+ 1.034043 4 3 ack 40 ------- 1 6.0 0.0 8 23
- 1.034043 4 3 ack 40 ------- 1 6.0 0.0 8 23
r 1.034101 0 3 tcp 1040 ------- 1 0.0 6.0 16 25
+ 1.034101 3 4 tcp 1040 ------- 1 0.0 6.0 16 25
r 1.046944 4 5 tcp 1040 ------- 1 0.0 6.0 9 15
+ 1.046944 5 6 tcp 1040 ------- 1 0.0 6.0 9 15
- 1.046944 5 6 tcp 1040 ------- 1 0.0 6.0 9 15
- 1.052411 3 4 tcp 1040 ------- 1 0.0 6.0 12 19
r 1.05736 5 6 tcp 1040 ------- 1 0.0 6.0 9 15
+ 1.05736 6 5 ack 40 ------- 1 6.0 0.0 9 26
- 1.05736 6 5 ack 40 ------- 1 6.0 0.0 9 26
r 1.066176 4 3 ack 40 ------- 1 6.0 0.0 8 23
+ 1.066176 3 0 ack 40 ------- 1 6.0 0.0 8 23
- 1.066176 3 0 ack 40 ------- 1 6.0 0.0 8 23
r 1.067376 6 5 ack 40 ------- 1 6.0 0.0 9 26
+ 1.067376 5 4 ack 40 ------- 1 6.0 0.0 9 26
- 1.067376 5 4 ack 40 ------- 1 6.0 0.0 9 26
r 1.07624 3 0 ack 40 ------- 1 6.0 0.0 8 23
+ 1.07624 0 3 tcp 1040 ------- 1 0.0 6.0 17 27
- 1.07624 0 3 tcp 1040 ------- 1 0.0 6.0 17 27
+ 1.07624 0 3 tcp 1040 ------- 1 0.0 6.0 18 28
- 1.077904 0 3 tcp 1040 ------- 1 0.0 6.0 18 28
r 1.082411 3 4 tcp 1040 ------- 1 0.0 6.0 11 18
+ 1.082411 4 5 tcp 1040 ------- 1 0.0 6.0 11 18
- 1.082411 4 5 tcp 1040 ------- 1 0.0 6.0 11 18
r 1.087904 0 3 tcp 1040 ------- 1 0.0 6.0 17 27
+ 1.087904 3 4 tcp 1040 ------- 1 0.0 6.0 17 27
r 1.089509 5 4 ack 40 ------- 1 6.0 0.0 9 26
+ 1.089509 4 3 ack 40 ------- 1 6.0 0.0 9 26
- 1.089509 4 3 ack 40 ------- 1 6.0 0.0 9 26
r 1.089568 0 3 tcp 1040 ------- 1 0.0 6.0 18 28
+ 1.089568 3 4 tcp 1040 ------- 1 0.0 6.0 18 28
r 1.102411 4 5 tcp 1040 ------- 1 0.0 6.0 10 16
+ 1.102411 5 6 tcp 1040 ------- 1 0.0 6.0 10 16
- 1.102411 5 6 tcp 1040 ------- 1 0.0 6.0 10 16
- 1.107877 3 4 tcp 1040 ------- 1 0.0 6.0 13 20
r 1.112827 5 6 tcp 1040 ------- 1 0.0 6.0 10 16
+ 1.112827 6 5 ack 40 ------- 1 6.0 0.0 10 29
- 1.112827 6 5 ack 40 ------- 1 6.0 0.0 10 29
r 1.121643 4 3 ack 40 ------- 1 6.0 0.0 9 26
+ 1.121643 3 0 ack 40 ------- 1 6.0 0.0 9 26
- 1.121643 3 0 ack 40 ------- 1 6.0 0.0 9 26
r 1.122843 6 5 ack 40 ------- 1 6.0 0.0 10 29
+ 1.122843 5 4 ack 40 ------- 1 6.0 0.0 10 29
- 1.122843 5 4 ack 40 ------- 1 6.0 0.0 10 29
r 1.131707 3 0 ack 40 ------- 1 6.0 0.0 9 26
+ 1.131707 0 3 tcp 1040 ------- 1 0.0 6.0 19 30
- 1.131707 0 3 tcp 1040 ------- 1 0.0 6.0 19 30
+ 1.131707 0 3 tcp 1040 ------- 1 0.0 6.0 20 31
- 1.133371 0 3 tcp 1040 ------- 1 0.0 6.0 20 31
r 1.137877 3 4 tcp 1040 ------- 1 0.0 6.0 12 19
+ 1.137877 4 5 tcp 1040 ------- 1 0.0 6.0 12 19
- 1.137877 4 5 tcp 1040 ------- 1 0.0 6.0 12 19
r 1.143371 0 3 tcp 1040 ------- 1 0.0 6.0 19 30
+ 1.143371 3 4 tcp 1040 ------- 1 0.0 6.0 19 30
r 1.144976 5 4 ack 40 ------- 1 6.0 0.0 10 29
+ 1.144976 4 3 ack 40 ------- 1 6.0 0.0 10 29
- 1.144976 4 3 ack 40 ------- 1 6.0 0.0 10 29
r 1.145035 0 3 tcp 1040 ------- 1 0.0 6.0 20 31
+ 1.145035 3 4 tcp 1040 ------- 1 0.0 6.0 20 31
r 1.157877 4 5 tcp 1040 ------- 1 0.0 6.0 11 18
+ 1.157877 5 6 tcp 1040 ------- 1 0.0 6.0 11 18
- 1.157877 5 6 tcp 1040 ------- 1 0.0 6.0 11 18
- 1.163344 3 4 tcp 1040 ------- 1 0.0 6.0 14 21
r 1.168293 5 6 tcp 1040 ------- 1 0.0 6.0 11 18
+ 1.168293 6 5 ack 40 ------- 1 6.0 0.0 11 32
- 1.168293 6 5 ack 40 ------- 1 6.0 0.0 11 32
r 1.177109 4 3 ack 40 ------- 1 6.0 0.0 10 29
+ 1.177109 3 0 ack 40 ------- 1 6.0 0.0 10 29
- 1.177109 3 0 ack 40 ------- 1 6.0 0.0 10 29
r 1.178309 6 5 ack 40 ------- 1 6.0 0.0 11 32
+ 1.178309 5 4 ack 40 ------- 1 6.0 0.0 11 32
- 1.178309 5 4 ack 40 ------- 1 6.0 0.0 11 32
r 1.187173 3 0 ack 40 ------- 1 6.0 0.0 10 29
+ 1.187173 0 3 tcp 1040 ------- 1 0.0 6.0 21 33
- 1.187173 0 3 tcp 1040 ------- 1 0.0 6.0 21 33
+ 1.187173 0 3 tcp 1040 ------- 1 0.0 6.0 22 34
- 1.188837 0 3 tcp 1040 ------- 1 0.0 6.0 22 34
r 1.193344 3 4 tcp 1040 ------- 1 0.0 6.0 13 20
+ 1.193344 4 5 tcp 1040 ------- 1 0.0 6.0 13 20
- 1.193344 4 5 tcp 1040 ------- 1 0.0 6.0 13 20
r 1.198837 0 3 tcp 1040 ------- 1 0.0 6.0 21 33
+ 1.198837 3 4 tcp 1040 ------- 1 0.0 6.0 21 33
r 1.200443 5 4 ack 40 ------- 1 6.0 0.0 11 32
+ 1.200443 4 3 ack 40 ------- 1 6.0 0.0 11 32
- 1.200443 4 3 ack 40 ------- 1 6.0 0.0 11 32
r 1.200501 0 3 tcp 1040 ------- 1 0.0 6.0 22 34
+ 1.200501 3 4 tcp 1040 ------- 1 0.0 6.0 22 34
r 1.213344 4 5 tcp 1040 ------- 1 0.0 6.0 12 19
+ 1.213344 5 6 tcp 1040 ------- 1 0.0 6.0 12 19
- 1.213344 5 6 tcp 1040 ------- 1 0.0 6.0 12 19
- 1.218811 3 4 tcp 1040 ------- 1 0.0 6.0 15 24
r 1.22376 5 6 tcp 1040 ------- 1 0.0 6.0 12 19
+ 1.22376 6 5 ack 40 ------- 1 6.0 0.0 12 35
- 1.22376 6 5 ack 40 ------- 1 6.0 0.0 12 35
r 1.232576 4 3 ack 40 ------- 1 6.0 0.0 11 32
+ 1.232576 3 0 ack 40 ------- 1 6.0 0.0 11 32
- 1.232576 3 0 ack 40 ------- 1 6.0 0.0 11 32
r 1.233776 6 5 ack 40 ------- 1 6.0 0.0 12 35
+ 1.233776 5 4 ack 40 ------- 1 6.0 0.0 12 35
- 1.233776 5 4 ack 40 ------- 1 6.0 0.0 12 35
r 1.24264 3 0 ack 40 ------- 1 6.0 0.0 11 32
+ 1.24264 0 3 tcp 1040 ------- 1 0.0 6.0 23 36
- 1.24264 0 3 tcp 1040 ------- 1 0.0 6.0 23 36
+ 1.24264 0 3 tcp 1040 ------- 1 0.0 6.0 24 37
- 1.244304 0 3 tcp 1040 ------- 1 0.0 6.0 24 37
r 1.248811 3 4 tcp 1040 ------- 1 0.0 6.0 14 21
+ 1.248811 4 5 tcp 1040 ------- 1 0.0 6.0 14 21
- 1.248811 4 5 tcp 1040 ------- 1 0.0 6.0 14 21
r 1.254304 0 3 tcp 1040 ------- 1 0.0 6.0 23 36
+ 1.254304 3 4 tcp 1040 ------- 1 0.0 6.0 23 36
r 1.255909 5 4 ack 40 ------- 1 6.0 0.0 12 35
+ 1.255909 4 3 ack 40 ------- 1 6.0 0.0 12 35
- 1.255909 4 3 ack 40 ------- 1 6.0 0.0 12 35
r 1.255968 0 3 tcp 1040 ------- 1 0.0 6.0 24 37
+ 1.255968 3 4 tcp 1040 ------- 1 0.0 6.0 24 37
r 1.268811 4 5 tcp 1040 ------- 1 0.0 6.0 13 20
+ 1.268811 5 6 tcp 1040 ------- 1 0.0 6.0 13 20
- 1.268811 5 6 tcp 1040 ------- 1 0.0 6.0 13 20
- 1.274277 3 4 tcp 1040 ------- 1 0.0 6.0 16 25
r 1.279227 5 6 tcp 1040 ------- 1 0.0 6.0 13 20
+ 1.279227 6 5 ack 40 ------- 1 6.0 0.0 13 38
- 1.279227 6 5 ack 40 ------- 1 6.0 0.0 13 38
r 1.288043 4 3 ack 40 ------- 1 6.0 0.0 12 35
+ 1.288043 3 0 ack 40 ------- 1 6.0 0.0 12 35
- 1.288043 3 0 ack 40 ------- 1 6.0 0.0 12 35
r 1.289243 6 5 ack 40 ------- 1 6.0 0.0 13 38
+ 1.289243 5 4 ack 40 ------- 1 6.0 0.0 13 38
- 1.289243 5 4 ack 40 ------- 1 6.0 0.0 13 38
r 1.298107 3 0 ack 40 ------- 1 6.0 0.0 12 35
+ 1.298107 0 3 tcp 1040 ------- 1 0.0 6.0 25 39
- 1.298107 0 3 tcp 1040 ------- 1 0.0 6.0 25 39
+ 1.298107 0 3 tcp 1040 ------- 1 0.0 6.0 26 40
- 1.299771 0 3 tcp 1040 ------- 1 0.0 6.0 26 40
r 1.304277 3 4 tcp 1040 ------- 1 0.0 6.0 15 24
+ 1.304277 4 5 tcp 1040 ------- 1 0.0 6.0 15 24
- 1.304277 4 5 tcp 1040 ------- 1 0.0 6.0 15 24
r 1.309771 0 3 tcp 1040 ------- 1 0.0 6.0 25 39
+ 1.309771 3 4 tcp 1040 ------- 1 0.0 6.0 25 39
r 1.311376 5 4 ack 40 ------- 1 6.0 0.0 13 38
+ 1.311376 4 3 ack 40 ------- 1 6.0 0.0 13 38
- 1.311376 4 3 ack 40 ------- 1 6.0 0.0 13 38
r 1.311435 0 3 tcp 1040 ------- 1 0.0 6.0 26 40
+ 1.311435 3 4 tcp 1040 ------- 1 0.0 6.0 26 40
d 1.311435 3 4 tcp 1040 ------- 1 0.0 6.0 26 40
r 1.324277 4 5 tcp 1040 ------- 1 0.0 6.0 14 21
+ 1.324277 5 6 tcp 1040 ------- 1 0.0 6.0 14 21
- 1.324277 5 6 tcp 1040 ------- 1 0.0 6.0 14 21
- 1.329744 3 4 tcp 1040 ------- 1 0.0 6.0 17 27
r 1.334693 5 6 tcp 1040 ------- 1 0.0 6.0 14 21
+ 1.334693 6 5 ack 40 ------- 1 6.0 0.0 14 41
- 1.334693 6 5 ack 40 ------- 1 6.0 0.0 14 41
r 1.343509 4 3 ack 40 ------- 1 6.0 0.0 13 38
+ 1.343509 3 0 ack 40 ------- 1 6.0 0.0 13 38
- 1.343509 3 0 ack 40 ------- 1 6.0 0.0 13 38
r 1.344709 6 5 ack 40 ------- 1 6.0 0.0 14 41
+ 1.344709 5 4 ack 40 ------- 1 6.0 0.0 14 41
- 1.344709 5 4 ack 40 ------- 1 6.0 0.0 14 41
r 1.353573 3 0 ack 40 ------- 1 6.0 0.0 13 38
+ 1.353573 0 3 tcp 1040 ------- 1 0.0 6.0 27 42
- 1.353573 0 3 tcp 1040 ------- 1 0.0 6.0 27 42
+ 1.353573 0 3 tcp 1040 ------- 1 0.0 6.0 28 43
- 1.355237 0 3 tcp 1040 ------- 1 0.0 6.0 28 43
r 1.359744 3 4 tcp 1040 ------- 1 0.0 6.0 16 25
+ 1.359744 4 5 tcp 1040 ------- 1 0.0 6.0 16 25
- 1.359744 4 5 tcp 1040 ------- 1 0.0 6.0 16 25
r 1.365237 0 3 tcp 1040 ------- 1 0.0 6.0 27 42
+ 1.365237 3 4 tcp 1040 ------- 1 0.0 6.0 27 42
r 1.366843 5 4 ack 40 ------- 1 6.0 0.0 14 41
+ 1.366843 4 3 ack 40 ------- 1 6.0 0.0 14 41
- 1.366843 4 3 ack 40 ------- 1 6.0 0.0 14 41
r 1.366901 0 3 tcp 1040 ------- 1 0.0 6.0 28 43
+ 1.366901 3 4 tcp 1040 ------- 1 0.0 6.0 28 43
d 1.366901 3 4 tcp 1040 ------- 1 0.0 6.0 28 43
r 1.379744 4 5 tcp 1040 ------- 1 0.0 6.0 15 24
+ 1.379744 5 6 tcp 1040 ------- 1 0.0 6.0 15 24
- 1.379744 5 6 tcp 1040 ------- 1 0.0 6.0 15 24
- 1.385211 3 4 tcp 1040 ------- 1 0.0 6.0 18 28
r 1.39016 5 6 tcp 1040 ------- 1 0.0 6.0 15 24
+ 1.39016 6 5 ack 40 ------- 1 6.0 0.0 15 44
- 1.39016 6 5 ack 40 ------- 1 6.0 0.0 15 44
r 1.398976 4 3 ack 40 ------- 1 6.0 0.0 14 41
+ 1.398976 3 0 ack 40 ------- 1 6.0 0.0 14 41
- 1.398976 3 0 ack 40 ------- 1 6.0 0.0 14 41
r 1.400176 6 5 ack 40 ------- 1 6.0 0.0 15 44
+ 1.400176 5 4 ack 40 ------- 1 6.0 0.0 15 44
- 1.400176 5 4 ack 40 ------- 1 6.0 0.0 15 44
r 1.40904 3 0 ack 40 ------- 1 6.0 0.0 14 41
+ 1.40904 0 3 tcp 1040 ------- 1 0.0 6.0 29 45
- 1.40904 0 3 tcp 1040 ------- 1 0.0 6.0 29 45
+ 1.40904 0 3 tcp 1040 ------- 1 0.0 6.0 30 46
- 1.410704 0 3 tcp 1040 ------- 1 0.0 6.0 30 46
r 1.415211 3 4 tcp 1040 ------- 1 0.0 6.0 17 27
+ 1.415211 4 5 tcp 1040 ------- 1 0.0 6.0 17 27
- 1.415211 4 5 tcp 1040 ------- 1 0.0 6.0 17 27
r 1.420704 0 3 tcp 1040 ------- 1 0.0 6.0 29 45
+ 1.420704 3 4 tcp 1040 ------- 1 0.0 6.0 29 45
r 1.422309 5 4 ack 40 ------- 1 6.0 0.0 15 44
+ 1.422309 4 3 ack 40 ------- 1 6.0 0.0 15 44
- 1.422309 4 3 ack 40 ------- 1 6.0 0.0 15 44
r 1.422368 0 3 tcp 1040 ------- 1 0.0 6.0 30 46
+ 1.422368 3 4 tcp 1040 ------- 1 0.0 6.0 30 46
d 1.422368 3 4 tcp 1040 ------- 1 0.0 6.0 30 46
r 1.435211 4 5 tcp 1040 ------- 1 0.0 6.0 16 25
+ 1.435211 5 6 tcp 1040 ------- 1 0.0 6.0 16 25
- 1.435211 5 6 tcp 1040 ------- 1 0.0 6.0 16 25
- 1.440677 3 4 tcp 1040 ------- 1 0.0 6.0 19 30
r 1.445627 5 6 tcp 1040 ------- 1 0.0 6.0 16 25
+ 1.445627 6 5 ack 40 ------- 1 6.0 0.0 16 47
- 1.445627 6 5 ack 40 ------- 1 6.0 0.0 16 47
r 1.454443 4 3 ack 40 ------- 1 6.0 0.0 15 44
+ 1.454443 3 0 ack 40 ------- 1 6.0 0.0 15 44
- 1.454443 3 0 ack 40 ------- 1 6.0 0.0 15 44
r 1.455643 6 5 ack 40 ------- 1 6.0 0.0 16 47
+ 1.455643 5 4 ack 40 ------- 1 6.0 0.0 16 47
- 1.455643 5 4 ack 40 ------- 1 6.0 0.0 16 47
r 1.464507 3 0 ack 40 ------- 1 6.0 0.0 15 44
+ 1.464507 0 3 tcp 1040 ------- 1 0.0 6.0 31 48
- 1.464507 0 3 tcp 1040 ------- 1 0.0 6.0 31 48
+ 1.464507 0 3 tcp 1040 ------- 1 0.0 6.0 32 49
- 1.466171 0 3 tcp 1040 ------- 1 0.0 6.0 32 49
r 1.470677 3 4 tcp 1040 ------- 1 0.0 6.0 18 28
+ 1.470677 4 5 tcp 1040 ------- 1 0.0 6.0 18 28
- 1.470677 4 5 tcp 1040 ------- 1 0.0 6.0 18 28
r 1.476171 0 3 tcp 1040 ------- 1 0.0 6.0 31 48
+ 1.476171 3 4 tcp 1040 ------- 1 0.0 6.0 31 48
r 1.477776 5 4 ack 40 ------- 1 6.0 0.0 16 47
+ 1.477776 4 3 ack 40 ------- 1 6.0 0.0 16 47
- 1.477776 4 3 ack 40 ------- 1 6.0 0.0 16 47
r 1.477835 0 3 tcp 1040 ------- 1 0.0 6.0 32 49
+ 1.477835 3 4 tcp 1040 ------- 1 0.0 6.0 32 49
d 1.477835 3 4 tcp 1040 ------- 1 0.0 6.0 32 49
r 1.490677 4 5 tcp 1040 ------- 1 0.0 6.0 17 27
+ 1.490677 5 6 tcp 1040 ------- 1 0.0 6.0 17 27
- 1.490677 5 6 tcp 1040 ------- 1 0.0 6.0 17 27
- 1.496144 3 4 tcp 1040 ------- 1 0.0 6.0 20 31
r 1.501093 5 6 tcp 1040 ------- 1 0.0 6.0 17 27
+ 1.501093 6 5 ack 40 ------- 1 6.0 0.0 17 50
- 1.501093 6 5 ack 40 ------- 1 6.0 0.0 17 50
r 1.509909 4 3 ack 40 ------- 1 6.0 0.0 16 47
+ 1.509909 3 0 ack 40 ------- 1 6.0 0.0 16 47
- 1.509909 3 0 ack 40 ------- 1 6.0 0.0 16 47
r 1.511109 6 5 ack 40 ------- 1 6.0 0.0 17 50
+ 1.511109 5 4 ack 40 ------- 1 6.0 0.0 17 50
- 1.511109 5 4 ack 40 ------- 1 6.0 0.0 17 50
r 1.519973 3 0 ack 40 ------- 1 6.0 0.0 16 47
+ 1.519973 0 3 tcp 1040 ------- 1 0.0 6.0 33 51
- 1.519973 0 3 tcp 1040 ------- 1 0.0 6.0 33 51
+ 1.519973 0 3 tcp 1040 ------- 1 0.0 6.0 34 52
- 1.521637 0 3 tcp 1040 ------- 1 0.0 6.0 34 52
r 1.526144 3 4 tcp 1040 ------- 1 0.0 6.0 19 30
+ 1.526144 4 5 tcp 1040 ------- 1 0.0 6.0 19 30
- 1.526144 4 5 tcp 1040 ------- 1 0.0 6.0 19 30
r 1.531637 0 3 tcp 1040 ------- 1 0.0 6.0 33 51
+ 1.531637 3 4 tcp 1040 ------- 1 0.0 6.0 33 51
r 1.533243 5 4 ack 40 ------- 1 6.0 0.0 17 50
+ 1.533243 4 3 ack 40 ------- 1 6.0 0.0 17 50
- 1.533243 4 3 ack 40 ------- 1 6.0 0.0 17 50
r 1.533301 0 3 tcp 1040 ------- 1 0.0 6.0 34 52
+ 1.533301 3 4 tcp 1040 ------- 1 0.0 6.0 34 52
d 1.533301 3 4 tcp 1040 ------- 1 0.0 6.0 34 52
r 1.546144 4 5 tcp 1040 ------- 1 0.0 6.0 18 28
+ 1.546144 5 6 tcp 1040 ------- 1 0.0 6.0 18 28
- 1.546144 5 6 tcp 1040 ------- 1 0.0 6.0 18 28
- 1.551611 3 4 tcp 1040 ------- 1 0.0 6.0 21 33
r 1.55656 5 6 tcp 1040 ------- 1 0.0 6.0 18 28
+ 1.55656 6 5 ack 40 ------- 1 6.0 0.0 18 53
- 1.55656 6 5 ack 40 ------- 1 6.0 0.0 18 53
r 1.565376 4 3 ack 40 ------- 1 6.0 0.0 17 50
+ 1.565376 3 0 ack 40 ------- 1 6.0 0.0 17 50
- 1.565376 3 0 ack 40 ------- 1 6.0 0.0 17 50
r 1.566576 6 5 ack 40 ------- 1 6.0 0.0 18 53
+ 1.566576 5 4 ack 40 ------- 1 6.0 0.0 18 53
- 1.566576 5 4 ack 40 ------- 1 6.0 0.0 18 53
r 1.57544 3 0 ack 40 ------- 1 6.0 0.0 17 50
+ 1.57544 0 3 tcp 1040 ------- 1 0.0 6.0 35 54
- 1.57544 0 3 tcp 1040 ------- 1 0.0 6.0 35 54
+ 1.57544 0 3 tcp 1040 ------- 1 0.0 6.0 36 55
- 1.577104 0 3 tcp 1040 ------- 1 0.0 6.0 36 55
r 1.581611 3 4 tcp 1040 ------- 1 0.0 6.0 20 31
+ 1.581611 4 5 tcp 1040 ------- 1 0.0 6.0 20 31
- 1.581611 4 5 tcp 1040 ------- 1 0.0 6.0 20 31
r 1.587104 0 3 tcp 1040 ------- 1 0.0 6.0 35 54
+ 1.587104 3 4 tcp 1040 ------- 1 0.0 6.0 35 54
r 1.588709 5 4 ack 40 ------- 1 6.0 0.0 18 53
+ 1.588709 4 3 ack 40 ------- 1 6.0 0.0 18 53
- 1.588709 4 3 ack 40 ------- 1 6.0 0.0 18 53
r 1.588768 0 3 tcp 1040 ------- 1 0.0 6.0 36 55
+ 1.588768 3 4 tcp 1040 ------- 1 0.0 6.0 36 55
d 1.588768 3 4 tcp 1040 ------- 1 0.0 6.0 36 55
r 1.601611 4 5 tcp 1040 ------- 1 0.0 6.0 19 30
+ 1.601611 5 6 tcp 1040 ------- 1 0.0 6.0 19 30
- 1.601611 5 6 tcp 1040 ------- 1 0.0 6.0 19 30
- 1.607077 3 4 tcp 1040 ------- 1 0.0 6.0 22 34
r 1.612027 5 6 tcp 1040 ------- 1 0.0 6.0 19 30
+ 1.612027 6 5 ack 40 ------- 1 6.0 0.0 19 56
- 1.612027 6 5 ack 40 ------- 1 6.0 0.0 19 56
r 1.620843 4 3 ack 40 ------- 1 6.0 0.0 18 53
+ 1.620843 3 0 ack 40 ------- 1 6.0 0.0 18 53
- 1.620843 3 0 ack 40 ------- 1 6.0 0.0 18 53
r 1.622043 6 5 ack 40 ------- 1 6.0 0.0 19 56
+ 1.622043 5 4 ack 40 ------- 1 6.0 0.0 19 56
- 1.622043 5 4 ack 40 ------- 1 6.0 0.0 19 56
r 1.630907 3 0 ack 40 ------- 1 6.0 0.0 18 53
+ 1.630907 0 3 tcp 1040 ------- 1 0.0 6.0 37 57
- 1.630907 0 3 tcp 1040 ------- 1 0.0 6.0 37 57
+ 1.630907 0 3 tcp 1040 ------- 1 0.0 6.0 38 58
- 1.632571 0 3 tcp 1040 ------- 1 0.0 6.0 38 58
r 1.637077 3 4 tcp 1040 ------- 1 0.0 6.0 21 33
+ 1.637077 4 5 tcp 1040 ------- 1 0.0 6.0 21 33
- 1.637077 4 5 tcp 1040 ------- 1 0.0 6.0 21 33
r 1.642571 0 3 tcp 1040 ------- 1 0.0 6.0 37 57
+ 1.642571 3 4 tcp 1040 ------- 1 0.0 6.0 37 57
r 1.644176 5 4 ack 40 ------- 1 6.0 0.0 19 56
+ 1.644176 4 3 ack 40 ------- 1 6.0 0.0 19 56
- 1.644176 4 3 ack 40 ------- 1 6.0 0.0 19 56
r 1.644235 0 3 tcp 1040 ------- 1 0.0 6.0 38 58
+ 1.644235 3 4 tcp 1040 ------- 1 0.0 6.0 38 58
d 1.644235 3 4 tcp 1040 ------- 1 0.0 6.0 38 58
r 1.657077 4 5 tcp 1040 ------- 1 0.0 6.0 20 31
+ 1.657077 5 6 tcp 1040 ------- 1 0.0 6.0 20 31
- 1.657077 5 6 tcp 1040 ------- 1 0.0 6.0 20 31
- 1.662544 3 4 tcp 1040 ------- 1 0.0 6.0 23 36
r 1.667493 5 6 tcp 1040 ------- 1 0.0 6.0 20 31
+ 1.667493 6 5 ack 40 ------- 1 6.0 0.0 20 59
- 1.667493 6 5 ack 40 ------- 1 6.0 0.0 20 59
r 1.676309 4 3 ack 40 ------- 1 6.0 0.0 19 56
+ 1.676309 3 0 ack 40 ------- 1 6.0 0.0 19 56
- 1.676309 3 0 ack 40 ------- 1 6.0 0.0 19 56
r 1.677509 6 5 ack 40 ------- 1 6.0 0.0 20 59
+ 1.677509 5 4 ack 40 ------- 1 6.0 0.0 20 59
- 1.677509 5 4 ack 40 ------- 1 6.0 0.0 20 59
r 1.686373 3 0 ack 40 ------- 1 6.0 0.0 19 56
+ 1.686373 0 3 tcp 1040 ------- 1 0.0 6.0 39 60
- 1.686373 0 3 tcp 1040 ------- 1 0.0 6.0 39 60
r 1.692544 3 4 tcp 1040 ------- 1 0.0 6.0 22 34
+ 1.692544 4 5 tcp 1040 ------- 1 0.0 6.0 22 34
- 1.692544 4 5 tcp 1040 ------- 1 0.0 6.0 22 34
r 1.698037 0 3 tcp 1040 ------- 1 0.0 6.0 39 60
+ 1.698037 3 4 tcp 1040 ------- 1 0.0 6.0 39 60
r 1.699643 5 4 ack 40 ------- 1 6.0 0.0 20 59
+ 1.699643 4 3 ack 40 ------- 1 6.0 0.0 20 59
- 1.699643 4 3 ack 40 ------- 1 6.0 0.0 20 59
r 1.712544 4 5 tcp 1040 ------- 1 0.0 6.0 21 33
+ 1.712544 5 6 tcp 1040 ------- 1 0.0 6.0 21 33
- 1.712544 5 6 tcp 1040 ------- 1 0.0 6.0 21 33
- 1.718011 3 4 tcp 1040 ------- 1 0.0 6.0 24 37
r 1.72296 5 6 tcp 1040 ------- 1 0.0 6.0 21 33
+ 1.72296 6 5 ack 40 ------- 1 6.0 0.0 21 61
- 1.72296 6 5 ack 40 ------- 1 6.0 0.0 21 61
r 1.731776 4 3 ack 40 ------- 1 6.0 0.0 20 59
+ 1.731776 3 0 ack 40 ------- 1 6.0 0.0 20 59
- 1.731776 3 0 ack 40 ------- 1 6.0 0.0 20 59
r 1.732976 6 5 ack 40 ------- 1 6.0 0.0 21 61
+ 1.732976 5 4 ack 40 ------- 1 6.0 0.0 21 61
- 1.732976 5 4 ack 40 ------- 1 6.0 0.0 21 61
r 1.74184 3 0 ack 40 ------- 1 6.0 0.0 20 59
+ 1.74184 0 3 tcp 1040 ------- 1 0.0 6.0 40 62
- 1.74184 0 3 tcp 1040 ------- 1 0.0 6.0 40 62
r 1.748011 3 4 tcp 1040 ------- 1 0.0 6.0 23 36
+ 1.748011 4 5 tcp 1040 ------- 1 0.0 6.0 23 36
- 1.748011 4 5 tcp 1040 ------- 1 0.0 6.0 23 36
r 1.753504 0 3 tcp 1040 ------- 1 0.0 6.0 40 62
+ 1.753504 3 4 tcp 1040 ------- 1 0.0 6.0 40 62
r 1.755109 5 4 ack 40 ------- 1 6.0 0.0 21 61
+ 1.755109 4 3 ack 40 ------- 1 6.0 0.0 21 61
- 1.755109 4 3 ack 40 ------- 1 6.0 0.0 21 61
r 1.768011 4 5 tcp 1040 ------- 1 0.0 6.0 22 34
+ 1.768011 5 6 tcp 1040 ------- 1 0.0 6.0 22 34
- 1.768011 5 6 tcp 1040 ------- 1 0.0 6.0 22 34
- 1.773477 3 4 tcp 1040 ------- 1 0.0 6.0 25 39
r 1.778427 5 6 tcp 1040 ------- 1 0.0 6.0 22 34
+ 1.778427 6 5 ack 40 ------- 1 6.0 0.0 22 63
- 1.778427 6 5 ack 40 ------- 1 6.0 0.0 22 63
r 1.787243 4 3 ack 40 ------- 1 6.0 0.0 21 61
+ 1.787243 3 0 ack 40 ------- 1 6.0 0.0 21 61
- 1.787243 3 0 ack 40 ------- 1 6.0 0.0 21 61
r 1.788443 6 5 ack 40 ------- 1 6.0 0.0 22 63
+ 1.788443 5 4 ack 40 ------- 1 6.0 0.0 22 63
- 1.788443 5 4 ack 40 ------- 1 6.0 0.0 22 63
r 1.797307 3 0 ack 40 ------- 1 6.0 0.0 21 61
+ 1.797307 0 3 tcp 1040 ------- 1 0.0 6.0 41 64
- 1.797307 0 3 tcp 1040 ------- 1 0.0 6.0 41 64
r 1.803477 3 4 tcp 1040 ------- 1 0.0 6.0 24 37
+ 1.803477 4 5 tcp 1040 ------- 1 0.0 6.0 24 37
- 1.803477 4 5 tcp 1040 ------- 1 0.0 6.0 24 37
r 1.808971 0 3 tcp 1040 ------- 1 0.0 6.0 41 64
+ 1.808971 3 4 tcp 1040 ------- 1 0.0 6.0 41 64
r 1.810576 5 4 ack 40 ------- 1 6.0 0.0 22 63
+ 1.810576 4 3 ack 40 ------- 1 6.0 0.0 22 63
- 1.810576 4 3 ack 40 ------- 1 6.0 0.0 22 63
r 1.823477 4 5 tcp 1040 ------- 1 0.0 6.0 23 36
+ 1.823477 5 6 tcp 1040 ------- 1 0.0 6.0 23 36
- 1.823477 5 6 tcp 1040 ------- 1 0.0 6.0 23 36
- 1.828944 3 4 tcp 1040 ------- 1 0.0 6.0 27 42
r 1.833893 5 6 tcp 1040 ------- 1 0.0 6.0 23 36